<?xml version="1.0"?>
<VTKFile type="UnstructuredGrid" version="0.1" byte_order="LittleEndian">
  <UnstructuredGrid>
    <Piece NumberOfCells="360" NumberOfPoints="800">
      <CellData Scalars="pressure[0]">
        <DataArray type="Float32" Name="pressure[0]" NumberOfComponents="1" format="ascii">
          2.09986e+07 2.10131e+07 2.15105e+07 2.20308e+07 2.23925e+07 2.28202e+07 2.29586e+07 2.30092e+07 2.30711e+07 2.31406e+07 2.33517e+07 2.36992e+07
          2.39569e+07 2.46112e+07 2.53662e+07 2.10426e+07 2.10572e+07 2.16072e+07 2.21509e+07 2.25502e+07 2.29946e+07 2.30971e+07 2.31371e+07 2.32015e+07
          2.3282e+07 2.35798e+07 2.39331e+07 2.41393e+07 2.4802e+07 2.5533e+07 2.10868e+07 2.11013e+07 2.16728e+07 2.22898e+07 2.26378e+07 2.30514e+07
          2.31759e+07 2.3236e+07 2.33227e+07 2.34384e+07 2.38467e+07 2.42531e+07 2.44494e+07 2.50523e+07 2.5745e+07 2.11319e+07 2.11479e+07 2.15314e+07
          2.24222e+07 2.27496e+07 2.3136e+07 2.32484e+07 2.33026e+07 2.34465e+07 2.36424e+07 2.41956e+07 2.46499e+07 2.48322e+07 2.53496e+07 2.60097e+07
          2.12358e+07 2.1261e+07 1.9788e+07 2.25214e+07 2.29234e+07 2.33161e+07 2.3386e+07 2.34226e+07 2.36782e+07 2.40768e+07 2.46132e+07 2.50267e+07
          2.52103e+07 2.56854e+07 2.62696e+07 2.1435e+07 2.14781e+07 2.19932e+07 2.29981e+07 2.32902e+07 2.35562e+07 2.36108e+07 2.36913e+07 2.40459e+07
          2.45694e+07 2.50974e+07 2.53668e+07 2.55631e+07 2.60239e+07 2.65611e+07 2.16901e+07 2.17399e+07 2.26335e+07 2.34891e+07 2.3695e+07 2.41777e+07
          2.42563e+07 2.43381e+07 2.4555e+07 2.51049e+07 2.55568e+07 2.56672e+07 2.58531e+07 2.639e+07 2.6967e+07 2.20572e+07 2.21113e+07 2.31905e+07
          2.40009e+07 2.4229e+07 2.47371e+07 2.48053e+07 2.48743e+07 2.50766e+07 2.55394e+07 2.58554e+07 2.59363e+07 2.61848e+07 2.6767e+07 2.75277e+07
          2.2593e+07 2.26569e+07 2.3674e+07 2.45236e+07 2.48065e+07 2.52188e+07 2.53562e+07 2.54948e+07 2.56771e+07 2.59987e+07 2.61644e+07 2.61957e+07
          2.6451e+07 2.71922e+07 2.8087e+07 2.32413e+07 2.33493e+07 2.40196e+07 2.4765e+07 2.53056e+07 2.56418e+07 2.59395e+07 2.62247e+07 2.63282e+07
          2.64641e+07 2.65404e+07 2.65687e+07 2.6836e+07 2.76188e+07 2.84192e+07 2.4186e+07 2.43273e+07 2.46243e+07 2.52123e+07 2.57147e+07 2.59564e+07
          2.64146e+07 2.68262e+07 2.69145e+07 2.69212e+07 2.69252e+07 2.69618e+07 2.7184e+07 2.7967e+07 2.86643e+07 2.48502e+07 2.4934e+07 2.51023e+07
          2.55878e+07 2.60657e+07 2.6269e+07 2.68898e+07 2.73959e+07 2.74219e+07 2.73736e+07 2.73277e+07 2.73448e+07 2.75578e+07 2.83124e+07 2.93668e+07
          2.53128e+07 2.53752e+07 2.55091e+07 2.58269e+07 2.67296e+07 2.68447e+07 2.74895e+07 2.80464e+07 2.81322e+07 2.78682e+07 2.78291e+07 2.82076e+07
          2.8843e+07 2.98565e+07 3.01075e+07 2.62332e+07 2.62963e+07 2.62279e+07 2.65736e+07 2.7686e+07 2.77893e+07 2.83085e+07 2.87144e+07 2.87828e+07
          2.88367e+07 2.88563e+07 2.94132e+07 3.01853e+07 3.07748e+07 3.05417e+07 2.70544e+07 2.70571e+07 2.7151e+07 2.79404e+07 2.85919e+07 2.86622e+07
          2.90011e+07 2.92475e+07 2.92997e+07 2.93807e+07 2.95388e+07 3.038e+07 3.1036e+07 3.12196e+07 3.10618e+07 2.77607e+07 2.77884e+07 2.79563e+07
          2.88924e+07 2.91373e+07 2.91927e+07 2.94308e+07 2.95868e+07 2.96373e+07 2.97149e+07 3.00283e+07 3.08179e+07 3.14052e+07 3.17296e+07 3.15533e+07
          2.84711e+07 2.85143e+07 2.86304e+07 2.94192e+07 2.95674e+07 2.96055e+07 2.97243e+07 2.98294e+07 2.98782e+07 2.99431e+07 3.03622e+07 3.12967e+07
          3.1924e+07 3.22383e+07 3.20038e+07 2.90493e+07 2.91072e+07 2.94462e+07 2.97317e+07 2.98593e+07 2.99032e+07 2.99951e+07 3.00729e+07 3.01238e+07
          3.01826e+07 3.06976e+07 3.16823e+07 3.23213e+07 3.25774e+07 3.24534e+07 2.93597e+07 2.94251e+07 2.96368e+07 2.99495e+07 3.01127e+07 3.01601e+07
          3.02404e+07 3.03088e+07 3.03552e+07 3.04116e+07 3.09772e+07 3.20635e+07 3.27168e+07 3.29067e+07 3.30778e+07 2.96095e+07 2.96679e+07 2.98616e+07
          3.01736e+07 3.03339e+07 3.0382e+07 3.04599e+07 3.05246e+07 3.05713e+07 3.06344e+07 3.11939e+07 3.23897e+07 3.31068e+07 3.32544e+07 3.36721e+07
          2.98199e+07 2.98862e+07 3.00416e+07 3.03313e+07 3.05305e+07 3.05838e+07 3.06682e+07 3.07371e+07 3.08007e+07 3.08813e+07 3.16727e+07 3.29504e+07
          3.34683e+07 3.36244e+07 3.41358e+07 3.00215e+07 3.00905e+07 3.02295e+07 3.05135e+07 3.0717e+07 3.0776e+07 3.08748e+07 3.09545e+07 3.1038e+07
          3.11313e+07 3.21994e+07 3.35254e+07 3.38429e+07 3.40343e+07 3.45878e+07 3.02056e+07 3.02686e+07 3.04363e+07 3.07365e+07 3.09035e+07 3.09719e+07
          3.1089e+07 3.11822e+07 3.1291e+07 3.14084e+07 3.26449e+07 3.3999e+07 3.427e+07 3.44851e+07 3.49114e+07 3.03738e+07 3.04338e+07 3.05813e+07
          3.08833e+07 3.10981e+07 3.11683e+07 3.13007e+07 3.14097e+07 3.15436e+07 3.17031e+07 3.31373e+07 3.44103e+07 3.47113e+07 3.49052e+07 3.51974e+07
        </DataArray>
        <DataArray type="Float32" Name="pressure[1]" NumberOfComponents="1" format="ascii">
          2.09986e+07 2.10131e+07 2.15105e+07 2.20308e+07 2.23925e+07 2.28202e+07 2.29586e+07 2.30092e+07 2.30711e+07 2.31406e+07 2.33517e+07 2.36992e+07
          2.39569e+07 2.46112e+07 2.53662e+07 2.10426e+07 2.10572e+07 2.16072e+07 2.21509e+07 2.25502e+07 2.29946e+07 2.30971e+07 2.31371e+07 2.32015e+07
          2.3282e+07 2.35798e+07 2.39331e+07 2.41393e+07 2.4802e+07 2.5533e+07 2.10868e+07 2.11013e+07 2.16728e+07 2.22898e+07 2.26378e+07 2.30514e+07
          2.31759e+07 2.3236e+07 2.33227e+07 2.34384e+07 2.38467e+07 2.42531e+07 2.44494e+07 2.50523e+07 2.5745e+07 2.11319e+07 2.11479e+07 2.15314e+07
          2.24222e+07 2.27496e+07 2.3136e+07 2.32484e+07 2.33026e+07 2.34465e+07 2.36424e+07 2.41956e+07 2.46499e+07 2.48322e+07 2.53496e+07 2.60097e+07
          2.12358e+07 2.1261e+07 1.9788e+07 2.25214e+07 2.29234e+07 2.33161e+07 2.3386e+07 2.34226e+07 2.36782e+07 2.40768e+07 2.46132e+07 2.50267e+07
          2.52103e+07 2.56854e+07 2.62696e+07 2.1435e+07 2.14781e+07 2.19932e+07 2.29981e+07 2.32902e+07 2.35562e+07 2.36108e+07 2.36913e+07 2.40459e+07
          2.45694e+07 2.50974e+07 2.53668e+07 2.55631e+07 2.60239e+07 2.65611e+07 2.16901e+07 2.17399e+07 2.26335e+07 2.34891e+07 2.3695e+07 2.41777e+07
          2.42563e+07 2.43381e+07 2.4555e+07 2.51049e+07 2.55568e+07 2.56672e+07 2.58531e+07 2.639e+07 2.6967e+07 2.20572e+07 2.21113e+07 2.31905e+07
          2.40009e+07 2.4229e+07 2.47371e+07 2.48053e+07 2.48743e+07 2.50766e+07 2.55394e+07 2.58554e+07 2.59363e+07 2.61848e+07 2.6767e+07 2.75277e+07
          2.2593e+07 2.26569e+07 2.3674e+07 2.45236e+07 2.48065e+07 2.52188e+07 2.53562e+07 2.54948e+07 2.56771e+07 2.59987e+07 2.61644e+07 2.61957e+07
          2.6451e+07 2.71922e+07 2.8087e+07 2.32413e+07 2.33493e+07 2.40196e+07 2.4765e+07 2.53056e+07 2.56418e+07 2.59395e+07 2.62247e+07 2.63282e+07
          2.64641e+07 2.65404e+07 2.65687e+07 2.6836e+07 2.76188e+07 2.84192e+07 2.4186e+07 2.43273e+07 2.46243e+07 2.52123e+07 2.57147e+07 2.59564e+07
          2.64146e+07 2.68262e+07 2.69145e+07 2.69212e+07 2.69252e+07 2.69618e+07 2.7184e+07 2.7967e+07 2.86643e+07 2.48502e+07 2.4934e+07 2.51023e+07
          2.55878e+07 2.60657e+07 2.6269e+07 2.68898e+07 2.73959e+07 2.74219e+07 2.73736e+07 2.73277e+07 2.73448e+07 2.75578e+07 2.83124e+07 2.93668e+07
          2.53128e+07 2.53752e+07 2.55091e+07 2.58269e+07 2.67296e+07 2.68447e+07 2.74895e+07 2.80464e+07 2.81322e+07 2.78682e+07 2.78291e+07 2.82076e+07
          2.8843e+07 2.98565e+07 3.01075e+07 2.62332e+07 2.62963e+07 2.62279e+07 2.65736e+07 2.7686e+07 2.77893e+07 2.83085e+07 2.87144e+07 2.87828e+07
          2.88367e+07 2.88563e+07 2.94132e+07 3.01853e+07 3.07748e+07 3.05417e+07 2.70544e+07 2.70571e+07 2.7151e+07 2.79404e+07 2.85919e+07 2.86622e+07
          2.90011e+07 2.92475e+07 2.92997e+07 2.93807e+07 2.95388e+07 3.038e+07 3.1036e+07 3.12196e+07 3.10618e+07 2.77607e+07 2.77884e+07 2.79563e+07
          2.88924e+07 2.91373e+07 2.91927e+07 2.94308e+07 2.95868e+07 2.96373e+07 2.97149e+07 3.00283e+07 3.08179e+07 3.14052e+07 3.17296e+07 3.15533e+07
          2.84711e+07 2.85143e+07 2.86304e+07 2.94192e+07 2.95674e+07 2.96055e+07 2.97243e+07 2.98294e+07 2.98782e+07 2.99431e+07 3.03622e+07 3.12967e+07
          3.1924e+07 3.22383e+07 3.20038e+07 2.90493e+07 2.91072e+07 2.94462e+07 2.97317e+07 2.98593e+07 2.99032e+07 2.99951e+07 3.00729e+07 3.01238e+07
          3.01826e+07 3.06976e+07 3.16823e+07 3.23213e+07 3.25774e+07 3.24534e+07 2.93597e+07 2.94251e+07 2.96368e+07 2.99495e+07 3.01127e+07 3.01601e+07
          3.02404e+07 3.03088e+07 3.03552e+07 3.04116e+07 3.09772e+07 3.20635e+07 3.27168e+07 3.29067e+07 3.30778e+07 2.96095e+07 2.96679e+07 2.98616e+07
          3.01736e+07 3.03339e+07 3.0382e+07 3.04599e+07 3.05246e+07 3.05713e+07 3.06344e+07 3.11939e+07 3.23897e+07 3.31068e+07 3.32544e+07 3.36721e+07
          2.98199e+07 2.98862e+07 3.00416e+07 3.03313e+07 3.05305e+07 3.05838e+07 3.06682e+07 3.07371e+07 3.08007e+07 3.08813e+07 3.16727e+07 3.29504e+07
          3.34683e+07 3.36244e+07 3.41358e+07 3.00215e+07 3.00905e+07 3.02295e+07 3.05135e+07 3.0717e+07 3.0776e+07 3.08748e+07 3.09545e+07 3.1038e+07
          3.11313e+07 3.21994e+07 3.35254e+07 3.38429e+07 3.40343e+07 3.45878e+07 3.02056e+07 3.02686e+07 3.04363e+07 3.07365e+07 3.09035e+07 3.09719e+07
          3.1089e+07 3.11822e+07 3.1291e+07 3.14084e+07 3.26449e+07 3.3999e+07 3.427e+07 3.44851e+07 3.49114e+07 3.03738e+07 3.04338e+07 3.05813e+07
          3.08833e+07 3.10981e+07 3.11683e+07 3.13007e+07 3.14097e+07 3.15436e+07 3.17031e+07 3.31373e+07 3.44103e+07 3.47113e+07 3.49052e+07 3.51974e+07
        </DataArray>
        <DataArray type="Float32" Name="pressure[2]" NumberOfComponents="1" format="ascii">
          2.09986e+07 2.10131e+07 2.15105e+07 2.20308e+07 2.23925e+07 2.28202e+07 2.29586e+07 2.30092e+07 2.30711e+07 2.31406e+07 2.33517e+07 2.36992e+07
          2.39569e+07 2.46112e+07 2.53662e+07 2.10426e+07 2.10572e+07 2.16072e+07 2.21509e+07 2.25502e+07 2.29946e+07 2.30971e+07 2.31371e+07 2.32015e+07
          2.3282e+07 2.35798e+07 2.39331e+07 2.41393e+07 2.4802e+07 2.5533e+07 2.10868e+07 2.11013e+07 2.16728e+07 2.22898e+07 2.26378e+07 2.30514e+07
          2.31759e+07 2.3236e+07 2.33227e+07 2.34384e+07 2.38467e+07 2.42531e+07 2.44494e+07 2.50523e+07 2.5745e+07 2.11319e+07 2.11479e+07 2.15314e+07
          2.24222e+07 2.27496e+07 2.3136e+07 2.32484e+07 2.33026e+07 2.34465e+07 2.36424e+07 2.41956e+07 2.46499e+07 2.48322e+07 2.53496e+07 2.60097e+07
          2.12358e+07 2.1261e+07 1.9788e+07 2.25214e+07 2.29234e+07 2.33161e+07 2.3386e+07 2.34226e+07 2.36782e+07 2.40768e+07 2.46132e+07 2.50267e+07
          2.52103e+07 2.56854e+07 2.62696e+07 2.1435e+07 2.14781e+07 2.19932e+07 2.29981e+07 2.32902e+07 2.35562e+07 2.36108e+07 2.36913e+07 2.40459e+07
          2.45694e+07 2.50974e+07 2.53668e+07 2.55631e+07 2.60239e+07 2.65611e+07 2.16901e+07 2.17399e+07 2.26335e+07 2.34891e+07 2.3695e+07 2.41777e+07
          2.42563e+07 2.43381e+07 2.4555e+07 2.51049e+07 2.55568e+07 2.56672e+07 2.58531e+07 2.639e+07 2.6967e+07 2.20572e+07 2.21113e+07 2.31905e+07
          2.40009e+07 2.4229e+07 2.47371e+07 2.48053e+07 2.48743e+07 2.50766e+07 2.55394e+07 2.58554e+07 2.59363e+07 2.61848e+07 2.6767e+07 2.75277e+07
          2.2593e+07 2.26569e+07 2.3674e+07 2.45236e+07 2.48065e+07 2.52188e+07 2.53562e+07 2.54948e+07 2.56771e+07 2.59987e+07 2.61644e+07 2.61957e+07
          2.6451e+07 2.71922e+07 2.8087e+07 2.32413e+07 2.33493e+07 2.40196e+07 2.4765e+07 2.53056e+07 2.56418e+07 2.59395e+07 2.62247e+07 2.63282e+07
          2.64641e+07 2.65404e+07 2.65687e+07 2.6836e+07 2.76188e+07 2.84192e+07 2.4186e+07 2.43273e+07 2.46243e+07 2.52123e+07 2.57147e+07 2.59564e+07
          2.64146e+07 2.68262e+07 2.69145e+07 2.69212e+07 2.69252e+07 2.69618e+07 2.7184e+07 2.7967e+07 2.86643e+07 2.48502e+07 2.4934e+07 2.51023e+07
          2.55878e+07 2.60657e+07 2.6269e+07 2.68898e+07 2.73959e+07 2.74219e+07 2.73736e+07 2.73277e+07 2.73448e+07 2.75578e+07 2.83124e+07 2.93668e+07
          2.53128e+07 2.53752e+07 2.55091e+07 2.58269e+07 2.67296e+07 2.68447e+07 2.74895e+07 2.80464e+07 2.81322e+07 2.78682e+07 2.78291e+07 2.82076e+07
          2.8843e+07 2.98565e+07 3.01075e+07 2.62332e+07 2.62963e+07 2.62279e+07 2.65736e+07 2.7686e+07 2.77893e+07 2.83085e+07 2.87144e+07 2.87828e+07
          2.88367e+07 2.88563e+07 2.94132e+07 3.01853e+07 3.07748e+07 3.05417e+07 2.70544e+07 2.70571e+07 2.7151e+07 2.79404e+07 2.85919e+07 2.86622e+07
          2.90011e+07 2.92475e+07 2.92997e+07 2.93807e+07 2.95388e+07 3.038e+07 3.1036e+07 3.12196e+07 3.10618e+07 2.77607e+07 2.77884e+07 2.79563e+07
          2.88924e+07 2.91373e+07 2.91927e+07 2.94308e+07 2.95868e+07 2.96373e+07 2.97149e+07 3.00283e+07 3.08179e+07 3.14052e+07 3.17296e+07 3.15533e+07
          2.84711e+07 2.85143e+07 2.86304e+07 2.94192e+07 2.95674e+07 2.96055e+07 2.97243e+07 2.98294e+07 2.98782e+07 2.99431e+07 3.03622e+07 3.12967e+07
          3.1924e+07 3.22383e+07 3.20038e+07 2.90493e+07 2.91072e+07 2.94462e+07 2.97317e+07 2.98593e+07 2.99032e+07 2.99951e+07 3.00729e+07 3.01238e+07
          3.01826e+07 3.06976e+07 3.16823e+07 3.23213e+07 3.25774e+07 3.24534e+07 2.93597e+07 2.94251e+07 2.96368e+07 2.99495e+07 3.01127e+07 3.01601e+07
          3.02404e+07 3.03088e+07 3.03552e+07 3.04116e+07 3.09772e+07 3.20635e+07 3.27168e+07 3.29067e+07 3.30778e+07 2.96095e+07 2.96679e+07 2.98616e+07
          3.01736e+07 3.03339e+07 3.0382e+07 3.04599e+07 3.05246e+07 3.05713e+07 3.06344e+07 3.11939e+07 3.23897e+07 3.31068e+07 3.32544e+07 3.36721e+07
          2.98199e+07 2.98862e+07 3.00416e+07 3.03313e+07 3.05305e+07 3.05838e+07 3.06682e+07 3.07371e+07 3.08007e+07 3.08813e+07 3.16727e+07 3.29504e+07
          3.34683e+07 3.36244e+07 3.41358e+07 3.00215e+07 3.00905e+07 3.02295e+07 3.05135e+07 3.0717e+07 3.0776e+07 3.08748e+07 3.09545e+07 3.1038e+07
          3.11313e+07 3.21994e+07 3.35254e+07 3.38429e+07 3.40343e+07 3.45878e+07 3.02056e+07 3.02686e+07 3.04363e+07 3.07365e+07 3.09035e+07 3.09719e+07
          3.1089e+07 3.11822e+07 3.1291e+07 3.14084e+07 3.26449e+07 3.3999e+07 3.427e+07 3.44851e+07 3.49114e+07 3.03738e+07 3.04338e+07 3.05813e+07
          3.08833e+07 3.10981e+07 3.11683e+07 3.13007e+07 3.14097e+07 3.15436e+07 3.17031e+07 3.31373e+07 3.44103e+07 3.47113e+07 3.49052e+07 3.51974e+07
        </DataArray>
        <DataArray type="Float32" Name="velocity[0]" NumberOfComponents="1" format="ascii">
          -1.36236e-10 2.92123e-08 2.8542e-10 1.25944e-09 -1.78551e-10 -1.1371e-09 3.83941e-10 1.74313e-09 2.85348e-09 -9.54326e-11 -1.93307e-09 -2.7899e-09
          -1.90199e-09 -5.43598e-10 -2.6881e-09 -2.53193e-09 8.57016e-08 6.34817e-10 -2.8599e-09 2.83416e-10 2.37971e-09 1.03154e-08 7.23425e-09 6.70766e-09
          -1.64199e-09 -4.01443e-09 -1.17941e-08 -7.26243e-09 -1.81007e-09 -7.14439e-09 -1.6333e-08 1.36311e-07 1.26653e-09 2.09394e-08 9.32672e-10 6.90926e-09
          1.90809e-08 1.52298e-08 5.33385e-09 -5.05908e-09 -4.85565e-09 -2.9595e-08 -1.03358e-08 -3.96345e-09 -1.07156e-08 -2.34081e-08 1.58738e-07 6.52502e-09
          9.32137e-08 -5.78079e-10 -1.33471e-09 9.79919e-09 1.42472e-08 -1.68651e-09 -1.26604e-08 -6.42181e-09 -5.19218e-08 -7.36568e-09 -5.73761e-09 -1.45978e-08
          -9.21814e-08 -3.84785e-08 -2.23821e-10 -9.48275e-08 -1.19662e-08 -3.53884e-08 -3.02941e-08 -1.09793e-08 -6.85664e-09 -1.38129e-08 -9.1845e-09 -8.94256e-08
          -3.76722e-09 -5.24963e-09 -1.79537e-08 -1.74245e-07 -2.14036e-07 -7.09674e-09 -2.27457e-07 -2.77942e-08 -1.08644e-07 -6.58424e-08 -8.55177e-08 -8.51443e-09
          -7.03388e-09 -1.4286e-08 -1.31112e-07 -2.25538e-09 -4.18374e-09 -2.01769e-08 -1.75721e-07 -1.8773e-07 -2.5279e-09 -8.54855e-08 -3.85285e-08 -1.75521e-07
          -5.926e-08 -1.7193e-07 -9.03023e-09 -3.73498e-09 -1.77949e-08 -1.58687e-07 -1.93615e-09 -4.09114e-09 -2.16961e-08 -1.6064e-07 -1.73898e-07 -2.89336e-09
          -2.83071e-08 -4.18213e-08 -2.00014e-07 -3.33614e-08 -2.40923e-07 -7.50626e-09 -2.84875e-09 -1.96594e-08 -1.75454e-07 -1.59157e-09 -4.16399e-09 -2.34095e-08
          -1.44422e-07 -1.5726e-07 -3.11012e-09 -8.08253e-09 -3.63804e-08 -2.10874e-07 -1.22157e-08 -3.12452e-07 -5.9198e-09 -3.10744e-09 -3.23025e-08 -1.6735e-07
          -1.5197e-09 -3.71746e-09 -2.56824e-08 -1.14686e-07 -1.41282e-07 -9.66986e-09 -2.19257e-09 -2.97614e-08 -2.16718e-07 -4.14662e-09 -3.84763e-07 -5.58905e-09
          -3.65754e-09 -5.45275e-08 -1.38887e-07 -2.35227e-09 -3.0606e-09 -2.79584e-08 -8.1154e-08 -1.26644e-07 -1.8393e-08 -1.9818e-09 -2.65497e-08 -2.21329e-07
          -1.42162e-09 -4.41651e-07 -1.02092e-08 -5.21844e-09 -7.00862e-08 -1.06949e-07 -5.28511e-09 -3.27078e-09 -3.00286e-08 -6.02823e-08 -1.10706e-07 -2.30176e-08
          -8.10214e-10 -2.10383e-08 -2.38985e-07 -1.19496e-09 -4.85964e-07 -1.98034e-08 -9.27064e-09 -7.74249e-08 -5.85581e-08 -1.34734e-08 -7.05501e-09 -3.15928e-08
          -4.65869e-08 -9.10383e-08 -2.98498e-08 -3.04094e-09 -1.69361e-08 -2.36168e-07 -1.76699e-09 -5.21662e-07 -4.83109e-08 -1.19585e-08 -5.73079e-08 -1.82724e-08
          -2.8066e-08 -1.45336e-08 -3.22909e-08 -4.01057e-08 -8.48691e-08 -2.72884e-08 -6.1813e-09 -2.10345e-08 -2.17107e-07 -1.84413e-09 -5.10591e-07 -8.65296e-08
          -1.6071e-08 -2.54451e-08 -7.34508e-09 -3.43513e-08 -2.64394e-08 -3.10092e-08 -4.47894e-08 -7.93701e-08 -1.65296e-08 -5.2711e-09 -2.80101e-08 -2.1534e-07
          -1.32112e-09 -4.69449e-07 -1.04935e-07 -2.43038e-08 -1.5227e-08 -3.89481e-09 -3.14408e-08 -4.13396e-08 -2.76777e-08 -5.3859e-08 -5.95604e-08 -1.17025e-08
          -3.84599e-09 -3.45671e-08 -2.1375e-07 -1.66162e-09 -4.00674e-07 -1.10053e-07 -3.33433e-08 -9.00232e-09 -5.15314e-09 -3.54735e-08 -6.09827e-08 -2.3268e-08
          -5.76827e-08 -4.48475e-08 -7.79372e-09 -4.98202e-09 -4.91665e-08 -1.87526e-07 -3.18407e-09 -3.17206e-07 -1.10945e-07 -5.17677e-08 -3.66693e-09 -5.03989e-09
          -2.92175e-08 -9.07472e-08 -1.84775e-08 -5.74599e-08 -3.59008e-08 -2.79126e-09 -3.78864e-09 -7.34831e-08 -1.35807e-07 -4.84451e-09 -2.41303e-07 -1.19408e-07
          -7.83408e-08 -2.59179e-09 -3.39893e-09 -1.90013e-08 -1.18802e-07 -1.44324e-08 -5.21662e-08 -2.58209e-08 -1.48384e-09 -1.42098e-09 -9.11233e-08 -8.65798e-08
          -5.10063e-09 -1.71564e-07 -1.18918e-07 -1.22501e-07 -1.50353e-09 -2.79906e-09 -2.48987e-08 -1.35969e-07 -1.26505e-08 -4.3515e-08 -1.74775e-08 -1.44744e-09
          -6.52592e-10 -9.73379e-08 -4.93556e-08 -4.26241e-09 -1.25448e-07 -7.66767e-08 -2.11164e-07 -2.62399e-09 -3.9905e-09 -3.70071e-08 -1.44371e-07 -1.36381e-08
          -3.33655e-08 -1.17835e-08 -1.30245e-09 -1.85405e-10 -9.075e-08 -2.5862e-08 -3.65849e-09 -9.85836e-08 -3.19749e-08 -2.91987e-07 -4.11497e-09 -7.35704e-09
          -4.49746e-08 -1.51035e-07 -1.56961e-08 -2.1033e-08 -6.03074e-09 -2.02629e-09 -7.95587e-10 -6.7137e-08 -1.75809e-08 -3.56414e-09 -9.25188e-08 -1.72855e-08
          -3.08015e-07 -3.74754e-09 -1.41056e-08 -4.92485e-08 -1.57807e-07 -1.95025e-08 -9.83851e-09 -2.42077e-09 -9.15903e-10 -5.28781e-10 -3.34786e-08 -1.30863e-08
          -2.91375e-09 -9.70458e-08 -1.38845e-08 -2.64964e-07 -5.19505e-09 -2.4305e-08 -6.47362e-08 -1.64569e-07 -2.54925e-08 -2.61043e-09 -5.4689e-10 1.95375e-10
          6.74585e-11 -7.86584e-09 -4.98499e-09 -1.06406e-09 -4.93268e-08 -6.45775e-09 -1.14463e-07 -3.42743e-09 -1.4745e-08 -3.86972e-08 -8.46212e-08 -1.43197e-08
        </DataArray>
        <DataArray type="Float32" Name="velocity[1]" NumberOfComponents="1" format="ascii">
          2.11726e-26 4.67351e-24 6.66719e-26 1.95732e-25 2.7749e-26 0 -5.96689e-26 -2.37584e-25 4.33889e-26 5.75542e-24 -3.7336e-24 4.19472e-26
          2.428e-24 -9.75181e-25 4.17173e-25 3.51147e-25 4.1212e-24 6.09328e-26 -8.35926e-25 -1.60634e-25 7.13304e-24 1.32732e-24 4.49012e-25 -6.75068e-24
          -1.44405e-25 0 -4.02624e-26 5.61378e-26 -6.4877e-27 2.74798e-25 1.7937e-24 -6.36748e-24 -1.39132e-24 4.53462e-24 -1.65432e-25 0
          6.79093e-26 -7.00759e-25 -3.69026e-25 0 7.14903e-24 -1.12506e-23 0 1.12325e-24 -2.81411e-25 -1.37348e-24 1.16488e-23 -1.40578e-24
          -8.65823e-24 3.75773e-25 8.85032e-24 -2.20773e-23 2.42111e-23 -4.32122e-24 1.1797e-24 3.64364e-24 -4.69607e-24 3.07315e-24 -1.29471e-24 9.69935e-25
          -1.03458e-25 -6.10182e-23 5.56944e-24 9.63077e-24 -2.9973e-25 -4.18223e-24 5.86124e-26 -1.0455e-25 -2.16946e-25 -7.02568e-24 4.46549e-24 -8.32765e-24
          -9.3796e-29 1.28819e-25 -1.49431e-24 -1.36677e-25 6.45079e-24 -5.54253e-25 6.98299e-24 1.35571e-25 -7.55963e-24 0 -1.60726e-25 -2.81159e-25
          3.25983e-25 -5.05383e-25 6.07655e-24 -1.37213e-24 8.12978e-25 1.49342e-24 -9.76609e-25 1.09627e-24 0 6.96215e-24 8.24834e-25 -1.00332e-23
          -1.85819e-26 -8.33209e-26 -3.08181e-24 -2.3288e-27 -3.19402e-29 -1.79207e-28 2.78711e-26 -1.46232e-28 -1.64141e-24 -1.86941e-25 1.28031e-23 1.26454e-24
          4.21577e-24 -5.44845e-26 1.43882e-23 -4.64049e-27 3.67393e-26 2.78719e-25 -1.80312e-26 -3.32032e-24 -1.30865e-23 -6.54044e-29 -3.44736e-25 1.9077e-24
          -1.51293e-24 -9.05727e-24 -2.24695e-26 -1.34051e-24 -6.19374e-25 3.49492e-24 0 0 -2.09015e-25 -1.01756e-28 6.98134e-25 3.79748e-24
          -1.52817e-28 5.84965e-26 -1.98868e-28 -1.05631e-23 1.53228e-24 1.74654e-24 -7.14362e-26 -3.13571e-24 3.59583e-24 -6.64661e-24 5.89238e-24 2.80906e-25
          -6.33117e-26 -2.26423e-25 3.45922e-24 -7.81425e-25 0 -2.08365e-24 3.83852e-24 1.73832e-25 3.12773e-25 -2.17695e-25 2.49495e-24 -1.27708e-29
          -4.19686e-24 5.90587e-24 6.63292e-25 1.79121e-25 -2.46931e-25 8.0761e-24 1.70562e-24 -2.88704e-25 1.44352e-25 -4.01677e-24 2.79952e-24 -4.15802e-25
          1.0393e-25 -3.16096e-24 -1.95765e-23 3.31701e-26 3.94033e-24 -3.3048e-24 -4.505e-25 1.56601e-24 2.94782e-24 -1.77758e-24 1.00263e-24 -9.91904e-26
          3.2191e-24 7.91405e-24 0 -3.99817e-25 1.33288e-25 2.4588e-24 5.58189e-26 1.61549e-24 -3.60306e-24 -1.39684e-29 -2.66194e-24 -8.30269e-25
          1.39106e-24 -8.04318e-25 1.02312e-29 -2.13856e-25 1.37251e-27 8.06974e-25 -1.75245e-25 -1.72503e-28 1.62996e-23 -4.36247e-26 -3.32984e-24 5.75538e-24
          -2.98966e-25 2.66231e-24 2.23561e-24 -4.42139e-24 -1.06514e-28 -2.30552e-24 -3.00927e-24 -5.38406e-24 -3.41709e-28 5.2444e-25 5.80442e-25 9.15723e-28
          -3.75374e-26 -7.60984e-24 2.02171e-24 0 0 3.11243e-25 3.66731e-24 -4.97215e-25 4.30141e-24 0 1.51253e-24 0
          -3.02961e-25 4.38689e-25 7.04915e-28 9.04557e-26 -7.62606e-24 -1.92275e-28 -3.46008e-28 -4.00885e-28 4.03457e-24 -7.76851e-28 -1.1862e-24 -1.99616e-24
          1.15209e-28 7.74044e-25 1.6711e-28 -1.68592e-25 1.8303e-24 -9.92137e-24 0 -1.01932e-23 0 5.59154e-28 2.95572e-24 -3.65699e-24
          -1.63664e-24 3.85881e-28 1.25164e-24 0 3.09791e-24 0 4.71619e-25 1.60278e-24 4.83926e-24 1.1168e-25 -6.44991e-24 -5.49631e-24
          -2.06375e-24 1.74569e-25 4.90379e-26 -1.14083e-28 -1.67072e-24 -9.91334e-25 3.72281e-24 -1.83446e-24 2.01711e-24 -1.66416e-24 7.92724e-25 8.33111e-24
          -7.18457e-26 -4.38808e-24 1.00019e-23 5.2371e-24 -3.14956e-24 6.87174e-26 8.67902e-25 -5.31546e-28 9.7471e-25 9.83783e-29 -3.35239e-24 7.24319e-25
          -1.54085e-24 3.46167e-25 -2.5788e-24 -1.16616e-25 -5.55775e-24 -5.04288e-24 8.98279e-24 2.56259e-25 3.36633e-24 1.01355e-24 -3.40917e-25 -8.04604e-25
          -8.94493e-25 5.3924e-25 0 -3.2881e-26 -1.19692e-24 4.10981e-24 -7.22757e-24 7.22806e-24 -5.36519e-24 1.74237e-27 0 0
          2.24776e-25 -7.53213e-28 1.29454e-24 -1.02212e-24 -1.07214e-24 9.91156e-25 -1.66574e-24 -9.69029e-25 -1.25887e-24 2.04311e-26 4.5387e-25 -3.49103e-24
          1.26942e-23 -2.4225e-25 -6.11403e-24 4.3908e-25 8.84758e-25 -1.78841e-28 -7.17443e-25 -7.22497e-29 -2.04108e-28 1.02612e-25 -2.75826e-24 4.84469e-25
          -1.22097e-25 9.52214e-24 -3.97054e-24 0 -2.57954e-25 -8.0539e-25 6.23071e-24 -7.27048e-25 0 -4.05927e-25 -2.01575e-28 -3.31508e-25
          5.63723e-25 -1.22223e-24 -2.00186e-24 -3.31414e-25 -2.64118e-24 1.00361e-24 -2.77451e-23 0 2.77238e-23 -2.0299e-23 1.67445e-23 4.21444e-25
        </DataArray>
        <DataArray type="Float32" Name="velocity[2]" NumberOfComponents="1" format="ascii">
          -1.42415e-11 3.75303e-09 -2.75295e-09 -2.60326e-09 -2.85594e-09 -2.91757e-09 -2.57794e-09 -2.37964e-09 -2.37908e-09 -3.03311e-09 -3.19072e-09 -3.01221e-09
          -2.52057e-09 -2.01e-09 -1.3713e-09 -2.95497e-10 1.40881e-08 -2.20949e-09 -2.50783e-09 -1.67729e-09 -1.52156e-09 -5.68598e-10 -1.45177e-09 -1.68303e-09
          -3.12291e-09 -3.43311e-09 -4.38501e-09 -2.94289e-09 -1.61329e-09 -1.85009e-09 -2.10655e-09 2.44218e-08 -5.80503e-10 1.42752e-09 -3.50566e-09 -2.40017e-09
          -1.99933e-10 -9.55241e-10 -2.64736e-09 -4.2185e-09 -4.0128e-09 -7.59345e-09 -3.49191e-09 -2.14022e-09 -2.49182e-09 -4.41826e-09 2.74494e-08 2.83438e-10
          1.30579e-08 -5.4948e-09 -5.11692e-09 -2.52207e-09 -1.35391e-09 -3.71624e-09 -5.10182e-09 -3.67552e-09 -1.09668e-08 -2.62983e-09 -2.45822e-09 -3.26784e-09
          -1.13276e-08 -7.34106e-10 -8.97494e-10 -2.37836e-08 -1.16931e-08 -1.40124e-08 -1.10285e-08 -6.21894e-09 -4.88321e-09 -6.20419e-09 -5.40994e-09 -1.78198e-08
          -1.17367e-09 -1.64074e-09 -3.59243e-09 -3.00784e-08 -3.74379e-08 -2.29937e-09 -4.63633e-08 -1.56373e-08 -2.72903e-08 -1.73872e-08 -1.92579e-08 -4.10938e-09
          -3.84393e-09 -5.00256e-09 -2.45036e-08 -9.19866e-10 -1.3319e-09 -3.87432e-09 -3.14044e-08 -3.41434e-08 -1.66216e-09 -1.84035e-08 -1.19801e-08 -3.49208e-08
          -1.37653e-08 -3.30464e-08 -3.48979e-09 -2.62901e-09 -5.13015e-09 -2.91961e-08 -7.84434e-10 -1.12871e-09 -4.01752e-09 -2.87615e-08 -3.18622e-08 -1.97825e-09
          -7.07239e-09 -1.01863e-08 -3.79117e-08 -8.70468e-09 -4.473e-08 -2.64092e-09 -1.86881e-09 -4.72918e-09 -3.18547e-08 -9.84886e-10 -1.4847e-09 -4.50877e-09
          -2.59439e-08 -2.9016e-08 -2.15297e-09 -3.3343e-09 -8.85299e-09 -3.95488e-08 -4.40011e-09 -5.65643e-08 -1.64161e-09 -1.18119e-09 -5.62112e-09 -2.94612e-08
          -9.28034e-10 -1.34819e-09 -4.90563e-09 -2.15541e-08 -2.78441e-08 -4.27929e-09 -2.29566e-09 -7.25909e-09 -4.03701e-08 -2.951e-09 -6.91165e-08 -1.22352e-09
          -8.45785e-10 -9.09331e-09 -2.4237e-08 -1.11062e-09 -1.25653e-09 -5.31164e-09 -1.50724e-08 -2.4151e-08 -5.14504e-09 -2.07982e-09 -6.4827e-09 -4.06394e-08
          -1.65551e-09 -7.87877e-08 -1.94733e-09 -7.65029e-10 -1.18779e-08 -1.904e-08 -1.88458e-09 -1.27758e-09 -5.60466e-09 -1.1212e-08 -2.11361e-08 -5.89486e-09
          -1.76654e-09 -5.61471e-09 -4.37048e-08 -1.16325e-09 -8.59625e-08 -2.7673e-09 -4.74696e-10 -1.21909e-08 -1.06401e-08 -4.276e-09 -2.21889e-09 -5.78361e-09
          -8.55333e-09 -1.7266e-08 -6.64515e-09 -1.42166e-09 -3.69701e-09 -4.30449e-08 -2.43845e-09 -9.38265e-08 -8.69056e-09 -8.97696e-10 -1.03622e-08 -5.39351e-09
          -6.97812e-09 -3.29712e-09 -5.71085e-09 -7.16228e-09 -1.49163e-08 -5.12275e-09 -1.96003e-09 -4.37701e-09 -3.89241e-08 -1.13333e-09 -9.14042e-08 -1.63113e-08
          -2.81427e-09 -4.85231e-09 -2.41997e-09 -7.55945e-09 -5.05537e-09 -5.02092e-09 -7.49377e-09 -1.36911e-08 -3.45852e-09 -1.89231e-09 -5.77734e-09 -3.854e-08
          -7.37072e-10 -8.38154e-08 -1.98623e-08 -5.2856e-09 -3.61743e-09 -1.71453e-09 -6.59437e-09 -7.15916e-09 -4.21745e-09 -9.29635e-09 -1.05875e-08 -2.70876e-09
          -1.39455e-09 -6.65869e-09 -3.82485e-08 -9.79204e-10 -7.26314e-08 -2.25888e-08 -8.75202e-09 -4.55987e-09 -4.10421e-09 -9.08148e-09 -1.12164e-08 -3.29618e-09
          -1.01171e-08 -8.04856e-09 -2.02896e-09 -1.74428e-09 -8.85327e-09 -3.37016e-08 -2.25011e-09 -5.85148e-08 -2.31127e-08 -1.2201e-08 -3.22284e-09 -3.58603e-09
          -8.64e-09 -1.73066e-08 -2.46815e-09 -1.02012e-08 -6.66706e-09 -1.19563e-09 -1.65397e-09 -1.33839e-08 -2.50351e-08 -3.26597e-09 -4.60332e-08 -2.50954e-08
          -1.67641e-08 -2.91118e-09 -3.09848e-09 -5.83832e-09 -2.16239e-08 -1.98666e-09 -9.48076e-09 -5.42565e-09 -1.38651e-09 -1.32488e-09 -1.68748e-08 -1.67645e-08
          -3.37238e-09 -3.34907e-08 -2.55483e-08 -2.55324e-08 -2.99411e-09 -3.28207e-09 -6.83293e-09 -2.49753e-08 -2.19508e-09 -7.96466e-09 -3.77847e-09 -1.12148e-09
          -1.07383e-09 -1.80974e-08 -1.03514e-08 -3.18428e-09 -2.50402e-08 -1.88637e-08 -4.22134e-08 -3.02481e-09 -3.06333e-09 -8.35232e-09 -2.65183e-08 -2.76979e-09
          -6.26721e-09 -3.01889e-09 -1.29865e-09 -1.04548e-09 -1.74152e-08 -6.7063e-09 -3.11945e-09 -2.01037e-08 -9.33343e-09 -5.49956e-08 -3.32182e-09 -3.79904e-09
          -1.02317e-08 -2.80562e-08 -3.08898e-09 -4.14734e-09 -2.05467e-09 -1.44585e-09 -1.19218e-09 -1.37193e-08 -5.8939e-09 -3.48309e-09 -1.90873e-08 -5.88937e-09
          -5.75805e-08 -4.22113e-09 -5.75988e-09 -1.1467e-08 -3.00715e-08 -4.38675e-09 -2.04278e-09 -1.10909e-09 -1.02346e-09 -1.10182e-09 -7.89181e-09 -5.38801e-09
          -3.76072e-09 -2.03374e-08 -5.68869e-09 -5.14611e-08 -6.99009e-09 -9.94311e-09 -1.59171e-08 -3.18971e-08 -5.54437e-09 -6.34436e-10 -4.72103e-10 -3.51825e-10
          -3.54302e-10 -2.16952e-09 -2.31381e-09 -1.88356e-09 -1.17377e-08 -5.88151e-09 -2.989e-08 -1.27938e-08 -1.11964e-08 -1.27504e-08 -1.77523e-08 -2.97701e-09
        </DataArray>
        <DataArray type="Float32" Name="z[0]" NumberOfComponents="1" format="ascii">
          0.150578 0.150579 0.15058 0.150582 0.150582 0.150583 0.150584 0.150585 0.150585 0.150586 0.150587 0.150588
          0.150589 0.150591 0.150596 0.150581 0.150582 0.150583 0.150585 0.150586 0.150587 0.150587 0.150588 0.150588
          0.150589 0.15059 0.150591 0.150593 0.150595 0.150599 0.150584 0.150585 0.150587 0.150588 0.150589 0.15059
          0.15059 0.150591 0.150592 0.150593 0.150593 0.150595 0.150596 0.150598 0.150602 0.150588 0.150589 0.15059
          0.150591 0.150592 0.150593 0.150594 0.150594 0.150595 0.150596 0.150597 0.150598 0.150599 0.150601 0.150605
          0.150591 0.150592 0.150593 0.150594 0.150595 0.150598 0.150601 0.182687 0.150598 0.150599 0.1506 0.150601
          0.150602 0.150604 0.150609 0.150594 0.150595 0.150596 0.150597 0.150607 0.263374 0.317966 0.390366 0.150601
          0.150602 0.150603 0.150604 0.150605 0.150607 0.150612 0.150597 0.150598 0.150599 0.150603 0.23839 0.410765