<?xml version="1.0"?>
<VTKFile type="UnstructuredGrid" version="0.1" byte_order="LittleEndian">
  <UnstructuredGrid>
    <Piece NumberOfCells="360" NumberOfPoints="800">
      <CellData Scalars="pressure[0]">
        <DataArray type="Float32" Name="pressure[0]" NumberOfComponents="1" format="ascii">
          2.12596e+07 2.12732e+07 2.20693e+07 2.28528e+07 2.32246e+07 2.3605e+07 2.37239e+07 2.37685e+07 2.38241e+07 2.38842e+07 2.40354e+07 2.4284e+07
          2.447e+07 2.50153e+07 2.56932e+07 2.13295e+07 2.13683e+07 2.22267e+07 2.30228e+07 2.3406e+07 2.37843e+07 2.38712e+07 2.39062e+07 2.39626e+07
          2.40283e+07 2.42327e+07 2.44824e+07 2.46379e+07 2.52034e+07 2.58566e+07 2.14516e+07 2.14982e+07 2.23628e+07 2.31786e+07 2.35209e+07 2.38783e+07
          2.3982e+07 2.40307e+07 2.41006e+07 2.4185e+07 2.44535e+07 2.47336e+07 2.48959e+07 2.54307e+07 2.60588e+07 2.15789e+07 2.16255e+07 2.21837e+07
          2.33168e+07 2.3667e+07 2.40222e+07 2.41176e+07 2.41611e+07 2.42572e+07 2.43757e+07 2.47254e+07 2.50642e+07 2.52328e+07 2.57002e+07 2.63067e+07
          2.17094e+07 2.17291e+07 1.98272e+07 2.34191e+07 2.38868e+07 2.42594e+07 2.43213e+07 2.4354e+07 2.44905e+07 2.46918e+07 2.50659e+07 2.53788e+07
          2.5557e+07 2.60028e+07 2.65511e+07 2.19211e+07 2.19639e+07 2.27736e+07 2.39843e+07 2.42878e+07 2.45273e+07 2.4569e+07 2.4602e+07 2.47744e+07
          2.5097e+07 2.54625e+07 2.56627e+07 2.58563e+07 2.63049e+07 2.68237e+07 2.21979e+07 2.22502e+07 2.34891e+07 2.44388e+07 2.46434e+07 2.4807e+07
          2.48486e+07 2.48828e+07 2.50465e+07 2.54708e+07 2.58191e+07 2.59145e+07 2.61003e+07 2.66305e+07 2.71981e+07 2.25986e+07 2.26559e+07 2.38534e+07
          2.47685e+07 2.49676e+07 2.50945e+07 2.51314e+07 2.51627e+07 2.5357e+07 2.57781e+07 2.60661e+07 2.61444e+07 2.63924e+07 2.69695e+07 2.7711e+07
          2.31771e+07 2.32412e+07 2.41662e+07 2.5033e+07 2.52834e+07 2.53863e+07 2.5436e+07 2.54838e+07 2.57196e+07 2.61198e+07 2.63231e+07 2.63682e+07
          2.66191e+07 2.73558e+07 2.82261e+07 2.38083e+07 2.39156e+07 2.44131e+07 2.51017e+07 2.5558e+07 2.56474e+07 2.57432e+07 2.58367e+07 2.60737e+07
          2.6447e+07 2.66304e+07 2.66748e+07 2.69454e+07 2.77472e+07 2.85395e+07 2.45277e+07 2.4642e+07 2.49324e+07 2.54157e+07 2.57913e+07 2.58587e+07
          2.60003e+07 2.61366e+07 2.63861e+07 2.67346e+07 2.6948e+07 2.70076e+07 2.72511e+07 2.8079e+07 2.87748e+07 2.52675e+07 2.53409e+07 2.54693e+07
          2.57676e+07 2.60212e+07 2.60662e+07 2.6249e+07 2.66369e+07 2.68245e+07 2.7073e+07 2.72752e+07 2.73639e+07 2.76391e+07 2.84264e+07 2.90272e+07
          2.58202e+07 2.58696e+07 2.59103e+07 2.61407e+07 2.6323e+07 2.63626e+07 2.65528e+07 2.72827e+07 2.73669e+07 2.75157e+07 2.7673e+07 2.78577e+07
          2.81602e+07 2.87796e+07 2.92907e+07 2.62567e+07 2.63054e+07 2.63473e+07 2.66021e+07 2.67679e+07 2.6801e+07 2.69851e+07 2.77646e+07 2.77964e+07
          2.79019e+07 2.80133e+07 2.8316e+07 2.87177e+07 2.99105e+07 2.97613e+07 2.66117e+07 2.66475e+07 2.6815e+07 2.71067e+07 2.72209e+07 2.72264e+07
          2.74444e+07 2.82666e+07 2.83032e+07 2.83395e+07 2.84105e+07 2.88145e+07 3.02263e+07 3.04717e+07 3.03422e+07 2.69312e+07 2.69778e+07 2.72782e+07
          2.76296e+07 2.77246e+07 2.79096e+07 2.80762e+07 2.86452e+07 2.86995e+07 2.87847e+07 2.90975e+07 2.99809e+07 3.07094e+07 3.1115e+07 3.09023e+07
          2.72519e+07 2.73172e+07 2.77028e+07 2.80876e+07 2.84786e+07 2.85345e+07 2.8717e+07 2.889e+07 2.89418e+07 2.90106e+07 2.94984e+07 3.06092e+07
          3.13666e+07 3.17425e+07 3.14212e+07 2.79616e+07 2.80012e+07 2.81728e+07 2.8636e+07 2.88412e+07 2.88889e+07 2.90228e+07 2.91394e+07 2.9194e+07
          2.92562e+07 2.98763e+07 3.10708e+07 3.18444e+07 3.21383e+07 3.19432e+07 2.82897e+07 2.83519e+07 2.85575e+07 2.89363e+07 2.91375e+07 2.91868e+07
          2.92936e+07 2.93867e+07 2.94358e+07 2.94951e+07 3.01838e+07 3.15146e+07 3.231e+07 3.25192e+07 3.26897e+07 2.8556e+07 2.86149e+07 2.88276e+07
          2.91954e+07 2.93829e+07 2.94324e+07 2.95304e+07 2.96131e+07 2.96626e+07 2.97305e+07 3.04149e+07 3.18882e+07 3.2766e+07 3.29226e+07 3.34005e+07
          2.8777e+07 2.88459e+07 2.90201e+07 2.93593e+07 2.95925e+07 2.96486e+07 2.97513e+07 2.98361e+07 2.99072e+07 2.99975e+07 3.09738e+07 3.25545e+07
          3.31856e+07 3.33538e+07 3.3948e+07 2.89878e+07 2.90601e+07 2.92157e+07 2.9549e+07 2.97877e+07 2.98509e+07 2.99697e+07 3.00664e+07 3.01627e+07
          3.02695e+07 3.15951e+07 3.32412e+07 3.36228e+07 3.38354e+07 3.44812e+07 2.91771e+07 2.92425e+07 2.94337e+07 2.97879e+07 2.99824e+07 3.00573e+07
          3.01982e+07 3.03109e+07 3.04389e+07 3.05759e+07 3.21159e+07 3.38009e+07 3.4126e+07 3.43687e+07 3.48506e+07 2.93473e+07 2.94089e+07 2.95755e+07
          2.99327e+07 3.01871e+07 3.02641e+07 3.04238e+07 3.05561e+07 3.07152e+07 3.09049e+07 3.2696e+07 3.42813e+07 3.46449e+07 3.48615e+07 3.51718e+07
        </DataArray>
        <DataArray type="Float32" Name="pressure[1]" NumberOfComponents="1" format="ascii">
          2.12596e+07 2.12732e+07 2.20693e+07 2.28528e+07 2.32246e+07 2.3605e+07 2.37239e+07 2.37685e+07 2.38241e+07 2.38842e+07 2.40354e+07 2.4284e+07
          2.447e+07 2.50153e+07 2.56932e+07 2.13295e+07 2.13683e+07 2.22267e+07 2.30228e+07 2.3406e+07 2.37843e+07 2.38712e+07 2.39062e+07 2.39626e+07
          2.40283e+07 2.42327e+07 2.44824e+07 2.46379e+07 2.52034e+07 2.58566e+07 2.14516e+07 2.14982e+07 2.23628e+07 2.31786e+07 2.35209e+07 2.38783e+07
          2.3982e+07 2.40307e+07 2.41006e+07 2.4185e+07 2.44535e+07 2.47336e+07 2.48959e+07 2.54307e+07 2.60588e+07 2.15789e+07 2.16255e+07 2.21837e+07
          2.33168e+07 2.3667e+07 2.40222e+07 2.41176e+07 2.41611e+07 2.42572e+07 2.43757e+07 2.47254e+07 2.50642e+07 2.52328e+07 2.57002e+07 2.63067e+07
          2.17094e+07 2.17291e+07 1.98272e+07 2.34191e+07 2.38868e+07 2.42594e+07 2.43213e+07 2.4354e+07 2.44905e+07 2.46918e+07 2.50659e+07 2.53788e+07
          2.5557e+07 2.60028e+07 2.65511e+07 2.19211e+07 2.19639e+07 2.27736e+07 2.39843e+07 2.42878e+07 2.45273e+07 2.4569e+07 2.4602e+07 2.47744e+07
          2.5097e+07 2.54625e+07 2.56627e+07 2.58563e+07 2.63049e+07 2.68237e+07 2.21979e+07 2.22502e+07 2.34891e+07 2.44388e+07 2.46434e+07 2.4807e+07
          2.48486e+07 2.48828e+07 2.50465e+07 2.54708e+07 2.58191e+07 2.59145e+07 2.61003e+07 2.66305e+07 2.71981e+07 2.25986e+07 2.26559e+07 2.38534e+07
          2.47685e+07 2.49676e+07 2.50945e+07 2.51314e+07 2.51627e+07 2.5357e+07 2.57781e+07 2.60661e+07 2.61444e+07 2.63924e+07 2.69695e+07 2.7711e+07
          2.31771e+07 2.32412e+07 2.41662e+07 2.5033e+07 2.52834e+07 2.53863e+07 2.5436e+07 2.54838e+07 2.57196e+07 2.61198e+07 2.63231e+07 2.63682e+07
          2.66191e+07 2.73558e+07 2.82261e+07 2.38083e+07 2.39156e+07 2.44131e+07 2.51017e+07 2.5558e+07 2.56474e+07 2.57432e+07 2.58367e+07 2.60737e+07
          2.6447e+07 2.66304e+07 2.66748e+07 2.69454e+07 2.77472e+07 2.85395e+07 2.45277e+07 2.4642e+07 2.49324e+07 2.54157e+07 2.57913e+07 2.58587e+07
          2.60003e+07 2.61366e+07 2.63861e+07 2.67346e+07 2.6948e+07 2.70076e+07 2.72511e+07 2.8079e+07 2.87748e+07 2.52675e+07 2.53409e+07 2.54693e+07
          2.57676e+07 2.60212e+07 2.60662e+07 2.6249e+07 2.66369e+07 2.68245e+07 2.7073e+07 2.72752e+07 2.73639e+07 2.76391e+07 2.84264e+07 2.90272e+07
          2.58202e+07 2.58696e+07 2.59103e+07 2.61407e+07 2.6323e+07 2.63626e+07 2.65528e+07 2.72827e+07 2.73669e+07 2.75157e+07 2.7673e+07 2.78577e+07
          2.81602e+07 2.87796e+07 2.92907e+07 2.62567e+07 2.63054e+07 2.63473e+07 2.66021e+07 2.67679e+07 2.6801e+07 2.69851e+07 2.77646e+07 2.77964e+07
          2.79019e+07 2.80133e+07 2.8316e+07 2.87177e+07 2.99105e+07 2.97613e+07 2.66117e+07 2.66475e+07 2.6815e+07 2.71067e+07 2.72209e+07 2.72264e+07
          2.74444e+07 2.82666e+07 2.83032e+07 2.83395e+07 2.84105e+07 2.88145e+07 3.02263e+07 3.04717e+07 3.03422e+07 2.69312e+07 2.69778e+07 2.72782e+07
          2.76296e+07 2.77246e+07 2.79096e+07 2.80762e+07 2.86452e+07 2.86995e+07 2.87847e+07 2.90975e+07 2.99809e+07 3.07094e+07 3.1115e+07 3.09023e+07
          2.72519e+07 2.73172e+07 2.77028e+07 2.80876e+07 2.84786e+07 2.85345e+07 2.8717e+07 2.889e+07 2.89418e+07 2.90106e+07 2.94984e+07 3.06092e+07
          3.13666e+07 3.17425e+07 3.14212e+07 2.79616e+07 2.80012e+07 2.81728e+07 2.8636e+07 2.88412e+07 2.88889e+07 2.90228e+07 2.91394e+07 2.9194e+07
          2.92562e+07 2.98763e+07 3.10708e+07 3.18444e+07 3.21383e+07 3.19432e+07 2.82897e+07 2.83519e+07 2.85575e+07 2.89363e+07 2.91375e+07 2.91868e+07
          2.92936e+07 2.93867e+07 2.94358e+07 2.94951e+07 3.01838e+07 3.15146e+07 3.231e+07 3.25192e+07 3.26897e+07 2.8556e+07 2.86149e+07 2.88276e+07
          2.91954e+07 2.93829e+07 2.94324e+07 2.95304e+07 2.96131e+07 2.96626e+07 2.97305e+07 3.04149e+07 3.18882e+07 3.2766e+07 3.29226e+07 3.34005e+07
          2.8777e+07 2.88459e+07 2.90201e+07 2.93593e+07 2.95925e+07 2.96486e+07 2.97513e+07 2.98361e+07 2.99072e+07 2.99975e+07 3.09738e+07 3.25545e+07
          3.31856e+07 3.33538e+07 3.3948e+07 2.89878e+07 2.90601e+07 2.92157e+07 2.9549e+07 2.97877e+07 2.98509e+07 2.99697e+07 3.00664e+07 3.01627e+07
          3.02695e+07 3.15951e+07 3.32412e+07 3.36228e+07 3.38354e+07 3.44812e+07 2.91771e+07 2.92425e+07 2.94337e+07 2.97879e+07 2.99824e+07 3.00573e+07
          3.01982e+07 3.03109e+07 3.04389e+07 3.05759e+07 3.21159e+07 3.38009e+07 3.4126e+07 3.43687e+07 3.48506e+07 2.93473e+07 2.94089e+07 2.95755e+07
          2.99327e+07 3.01871e+07 3.02641e+07 3.04238e+07 3.05561e+07 3.07152e+07 3.09049e+07 3.2696e+07 3.42813e+07 3.46449e+07 3.48615e+07 3.51718e+07
        </DataArray>
        <DataArray type="Float32" Name="pressure[2]" NumberOfComponents="1" format="ascii">
          2.12596e+07 2.12732e+07 2.20693e+07 2.28528e+07 2.32246e+07 2.3605e+07 2.37239e+07 2.37685e+07 2.38241e+07 2.38842e+07 2.40354e+07 2.4284e+07
          2.447e+07 2.50153e+07 2.56932e+07 2.13295e+07 2.13683e+07 2.22267e+07 2.30228e+07 2.3406e+07 2.37843e+07 2.38712e+07 2.39062e+07 2.39626e+07
          2.40283e+07 2.42327e+07 2.44824e+07 2.46379e+07 2.52034e+07 2.58566e+07 2.14516e+07 2.14982e+07 2.23628e+07 2.31786e+07 2.35209e+07 2.38783e+07
          2.3982e+07 2.40307e+07 2.41006e+07 2.4185e+07 2.44535e+07 2.47336e+07 2.48959e+07 2.54307e+07 2.60588e+07 2.15789e+07 2.16255e+07 2.21837e+07
          2.33168e+07 2.3667e+07 2.40222e+07 2.41176e+07 2.41611e+07 2.42572e+07 2.43757e+07 2.47254e+07 2.50642e+07 2.52328e+07 2.57002e+07 2.63067e+07
          2.17094e+07 2.17291e+07 1.98272e+07 2.34191e+07 2.38868e+07 2.42594e+07 2.43213e+07 2.4354e+07 2.44905e+07 2.46918e+07 2.50659e+07 2.53788e+07
          2.5557e+07 2.60028e+07 2.65511e+07 2.19211e+07 2.19639e+07 2.27736e+07 2.39843e+07 2.42878e+07 2.45273e+07 2.4569e+07 2.4602e+07 2.47744e+07
          2.5097e+07 2.54625e+07 2.56627e+07 2.58563e+07 2.63049e+07 2.68237e+07 2.21979e+07 2.22502e+07 2.34891e+07 2.44388e+07 2.46434e+07 2.4807e+07
          2.48486e+07 2.48828e+07 2.50465e+07 2.54708e+07 2.58191e+07 2.59145e+07 2.61003e+07 2.66305e+07 2.71981e+07 2.25986e+07 2.26559e+07 2.38534e+07
          2.47685e+07 2.49676e+07 2.50945e+07 2.51314e+07 2.51627e+07 2.5357e+07 2.57781e+07 2.60661e+07 2.61444e+07 2.63924e+07 2.69695e+07 2.7711e+07
          2.31771e+07 2.32412e+07 2.41662e+07 2.5033e+07 2.52834e+07 2.53863e+07 2.5436e+07 2.54838e+07 2.57196e+07 2.61198e+07 2.63231e+07 2.63682e+07
          2.66191e+07 2.73558e+07 2.82261e+07 2.38083e+07 2.39156e+07 2.44131e+07 2.51017e+07 2.5558e+07 2.56474e+07 2.57432e+07 2.58367e+07 2.60737e+07
          2.6447e+07 2.66304e+07 2.66748e+07 2.69454e+07 2.77472e+07 2.85395e+07 2.45277e+07 2.4642e+07 2.49324e+07 2.54157e+07 2.57913e+07 2.58587e+07
          2.60003e+07 2.61366e+07 2.63861e+07 2.67346e+07 2.6948e+07 2.70076e+07 2.72511e+07 2.8079e+07 2.87748e+07 2.52675e+07 2.53409e+07 2.54693e+07
          2.57676e+07 2.60212e+07 2.60662e+07 2.6249e+07 2.66369e+07 2.68245e+07 2.7073e+07 2.72752e+07 2.73639e+07 2.76391e+07 2.84264e+07 2.90272e+07
          2.58202e+07 2.58696e+07 2.59103e+07 2.61407e+07 2.6323e+07 2.63626e+07 2.65528e+07 2.72827e+07 2.73669e+07 2.75157e+07 2.7673e+07 2.78577e+07
          2.81602e+07 2.87796e+07 2.92907e+07 2.62567e+07 2.63054e+07 2.63473e+07 2.66021e+07 2.67679e+07 2.6801e+07 2.69851e+07 2.77646e+07 2.77964e+07
          2.79019e+07 2.80133e+07 2.8316e+07 2.87177e+07 2.99105e+07 2.97613e+07 2.66117e+07 2.66475e+07 2.6815e+07 2.71067e+07 2.72209e+07 2.72264e+07
          2.74444e+07 2.82666e+07 2.83032e+07 2.83395e+07 2.84105e+07 2.88145e+07 3.02263e+07 3.04717e+07 3.03422e+07 2.69312e+07 2.69778e+07 2.72782e+07
          2.76296e+07 2.77246e+07 2.79096e+07 2.80762e+07 2.86452e+07 2.86995e+07 2.87847e+07 2.90975e+07 2.99809e+07 3.07094e+07 3.1115e+07 3.09023e+07
          2.72519e+07 2.73172e+07 2.77028e+07 2.80876e+07 2.84786e+07 2.85345e+07 2.8717e+07 2.889e+07 2.89418e+07 2.90106e+07 2.94984e+07 3.06092e+07
          3.13666e+07 3.17425e+07 3.14212e+07 2.79616e+07 2.80012e+07 2.81728e+07 2.8636e+07 2.88412e+07 2.88889e+07 2.90228e+07 2.91394e+07 2.9194e+07
          2.92562e+07 2.98763e+07 3.10708e+07 3.18444e+07 3.21383e+07 3.19432e+07 2.82897e+07 2.83519e+07 2.85575e+07 2.89363e+07 2.91375e+07 2.91868e+07
          2.92936e+07 2.93867e+07 2.94358e+07 2.94951e+07 3.01838e+07 3.15146e+07 3.231e+07 3.25192e+07 3.26897e+07 2.8556e+07 2.86149e+07 2.88276e+07
          2.91954e+07 2.93829e+07 2.94324e+07 2.95304e+07 2.96131e+07 2.96626e+07 2.97305e+07 3.04149e+07 3.18882e+07 3.2766e+07 3.29226e+07 3.34005e+07
          2.8777e+07 2.88459e+07 2.90201e+07 2.93593e+07 2.95925e+07 2.96486e+07 2.97513e+07 2.98361e+07 2.99072e+07 2.99975e+07 3.09738e+07 3.25545e+07
          3.31856e+07 3.33538e+07 3.3948e+07 2.89878e+07 2.90601e+07 2.92157e+07 2.9549e+07 2.97877e+07 2.98509e+07 2.99697e+07 3.00664e+07 3.01627e+07
          3.02695e+07 3.15951e+07 3.32412e+07 3.36228e+07 3.38354e+07 3.44812e+07 2.91771e+07 2.92425e+07 2.94337e+07 2.97879e+07 2.99824e+07 3.00573e+07
          3.01982e+07 3.03109e+07 3.04389e+07 3.05759e+07 3.21159e+07 3.38009e+07 3.4126e+07 3.43687e+07 3.48506e+07 2.93473e+07 2.94089e+07 2.95755e+07
          2.99327e+07 3.01871e+07 3.02641e+07 3.04238e+07 3.05561e+07 3.07152e+07 3.09049e+07 3.2696e+07 3.42813e+07 3.46449e+07 3.48615e+07 3.51718e+07
        </DataArray>
        <DataArray type="Float32" Name="velocity[0]" NumberOfComponents="1" format="ascii">
          -2.20905e-08 7.58862e-08 -2.42788e-10 -7.67322e-09 -4.23105e-10 -1.65898e-09 -1.16289e-09 6.89259e-10 1.08836e-09 -5.52492e-10 -1.66083e-09 -2.16053e-09
          -1.48926e-09 -5.13665e-10 -2.31687e-09 -2.93827e-08 1.70169e-07 -2.69966e-10 -2.88165e-08 -1.38179e-10 1.01546e-09 5.43554e-09 3.78907e-09 2.05481e-09
          -2.699e-09 -3.43049e-09 -9.23764e-09 -5.65755e-09 -1.50937e-09 -6.14471e-09 -1.26952e-08 1.99716e-07 1.0248e-09 -9.8638e-09 1.82176e-10 2.47548e-09
          7.80949e-09 5.24989e-09 -7.31487e-10 -6.30509e-09 -3.96603e-09 -2.31836e-08 -8.19116e-09 -3.21088e-09 -9.2258e-09 -8.48205e-09 2.16689e-07 8.67005e-09
          7.92976e-08 -2.81208e-09 -1.64755e-08 -2.06269e-08 -1.40619e-08 -6.21528e-09 -1.25075e-08 -5.00001e-09 -3.914e-08 -5.867e-09 -4.73397e-09 -1.26361e-08
          -9.96392e-08 -3.22147e-08 -2.78644e-10 -1.66727e-07 -2.01374e-08 -8.12607e-08 -9.1757e-08 -8.27765e-08 -7.58553e-09 -1.21619e-08 -6.9232e-09 -6.46132e-08
          -2.87144e-09 -4.31788e-09 -1.56378e-08 -2.0295e-07 -2.59048e-07 -9.61038e-09 -3.24004e-07 -4.12079e-08 -2.3775e-07 -1.3016e-07 -2.05849e-07 -4.94974e-09
          -5.20683e-09 -1.00315e-08 -9.2166e-08 -1.63218e-09 -3.41673e-09 -1.76993e-08 -2.02015e-07 -2.20479e-07 -2.61019e-09 -1.03098e-07 -3.7129e-08 -4.05675e-07
          -1.06785e-07 -3.54396e-07 -3.74554e-09 -2.16506e-09 -1.19706e-08 -1.09766e-07 -1.44115e-09 -3.39127e-09 -1.91641e-08 -1.80695e-07 -1.96459e-07 -1.9588e-09
          -1.64068e-08 -2.21077e-08 -4.76233e-07 -6.57131e-08 -4.83748e-07 -3.45083e-09 -1.70411e-09 -1.33639e-08 -1.21685e-07 -1.20036e-09 -3.53989e-09 -2.08387e-08
          -1.61349e-07 -1.71328e-07 -2.05837e-09 -1.97228e-09 -1.52717e-08 -4.89436e-07 -2.55346e-08 -5.74717e-07 -2.6769e-09 -1.86307e-09 -2.26254e-08 -1.17758e-07
          -1.11153e-09 -3.22931e-09 -2.30508e-08 -1.29632e-07 -1.56358e-07 -8.1362e-09 -1.96342e-10 -1.14917e-08 -4.82339e-07 -8.09615e-09 -6.54301e-07 -2.22812e-09
          -1.86823e-09 -3.90649e-08 -1.0184e-07 -1.83322e-09 -2.74308e-09 -2.52924e-08 -9.27652e-08 -1.48253e-07 -1.91335e-08 -1.30923e-09 -1.11557e-08 -4.65521e-07
          -2.57784e-09 -7.02412e-07 -7.46838e-09 -2.95729e-09 -5.02306e-08 -8.74183e-08 -5.40911e-09 -3.21353e-09 -2.73714e-08 -7.25611e-08 -1.38284e-07 -2.64661e-08
          -1.0775e-09 -1.78917e-08 -4.47976e-07 -2.07257e-09 -5.93881e-07 -5.23354e-08 -7.7856e-09 -5.59039e-08 -7.07929e-08 -2.10018e-08 -5.98686e-09 -2.97116e-08
          -6.55094e-08 -1.37476e-07 -2.31797e-08 -2.07773e-09 -2.91778e-08 -4.08385e-07 -3.55891e-09 -3.7423e-07 -1.42426e-07 -1.48756e-08 -4.76063e-08 -3.83219e-08
          -4.5929e-08 -1.54091e-08 -3.38713e-08 -6.39826e-08 -1.44039e-07 -1.29817e-08 -4.26454e-09 -4.23312e-08 -3.62704e-07 -4.6553e-09 -3.11405e-07 -1.43722e-07
          -4.71846e-08 -3.78599e-08 -1.25127e-08 -5.37453e-08 -3.53979e-08 -3.56477e-08 -7.04769e-08 -1.30924e-07 -7.34876e-09 -7.22174e-09 -8.90642e-08 -2.91095e-07
          -6.54516e-09 -3.80675e-07 -9.99219e-08 -5.48505e-08 -3.07174e-08 -1.09888e-08 -4.85614e-08 -5.75106e-08 -3.28306e-08 -7.80639e-08 -1.02426e-07 -6.45169e-09
          -1.26976e-08 -9.59372e-08 -2.60318e-07 -8.24605e-09 -3.84058e-07 -1.09488e-07 -3.53647e-08 -1.39349e-08 -1.16246e-08 -5.158e-08 -8.26682e-08 -2.83681e-08
          -6.86635e-08 -7.76005e-08 -9.1264e-09 -1.59204e-08 -7.84481e-08 -2.58071e-07 -6.73231e-09 -3.31587e-07 -1.1612e-07 -5.35832e-08 -4.84699e-09 -7.16267e-09
          -4.00175e-08 -1.20298e-07 -2.29309e-08 -6.09756e-08 -5.2179e-08 -8.78914e-09 -9.51747e-09 -1.09346e-07 -1.91953e-07 -6.31497e-09 -2.66121e-07 -1.32853e-07
          -8.72867e-08 -3.20792e-09 -4.45341e-09 -2.50266e-08 -1.555e-07 -1.81151e-08 -5.98518e-08 -3.14914e-08 -4.83242e-09 -2.84173e-09 -1.29542e-07 -1.21581e-07
          -6.58826e-09 -1.99936e-07 -1.38479e-07 -1.44152e-07 -1.86117e-09 -3.59087e-09 -3.21221e-08 -1.76638e-07 -1.60051e-08 -5.19484e-08 -2.15075e-08 -2.41108e-09
          -1.07041e-09 -1.33177e-07 -6.73702e-08 -5.42615e-09 -1.49481e-07 -9.17959e-08 -2.57316e-07 -3.28136e-09 -5.06458e-09 -4.76224e-08 -1.86673e-07 -1.73453e-08
          -4.03811e-08 -1.43536e-08 -1.78232e-09 -3.08367e-10 -1.21038e-07 -3.42624e-08 -4.58815e-09 -1.19105e-07 -3.90665e-08 -3.61119e-07 -5.15993e-09 -9.31588e-09
          -5.79672e-08 -1.94566e-07 -2.00334e-08 -2.55617e-08 -7.36309e-09 -2.53453e-09 -1.00897e-09 -8.8102e-08 -2.28069e-08 -4.47565e-09 -1.14251e-07 -2.14197e-08
          -3.83603e-07 -4.72271e-09 -1.79487e-08 -6.33893e-08 -2.02685e-07 -2.49243e-08 -1.19757e-08 -2.95674e-09 -1.13338e-09 -6.66063e-10 -4.34505e-08 -1.68182e-08
          -3.67656e-09 -1.21566e-07 -1.73591e-08 -3.31373e-07 -6.56154e-09 -3.09693e-08 -8.279e-08 -2.10786e-07 -3.25904e-08 -3.17725e-09 -6.65868e-10 2.37776e-10
          7.80443e-11 -1.01132e-08 -6.37798e-09 -1.34567e-09 -6.20941e-08 -8.09884e-09 -1.43432e-07 -4.32842e-09 -1.87857e-08 -4.93452e-08 -1.08236e-07 -1.83056e-08
        </DataArray>
        <DataArray type="Float32" Name="velocity[1]" NumberOfComponents="1" format="ascii">
          3.43313e-24 1.20461e-23 1.80682e-25 -1.19251e-24 6.57556e-26 0 1.80726e-25 -2.51982e-26 1.30063e-25 4.97666e-24 -3.34314e-24 8.95675e-26
          2.09466e-24 -8.00639e-25 3.60104e-25 -2.29984e-24 2.65201e-24 1.86604e-25 -2.0934e-24 -2.65863e-25 7.32261e-24 7.30703e-25 5.32024e-26 -6.86548e-24
          -2.66335e-25 0 -8.16092e-26 7.98576e-26 2.96966e-28 2.34823e-25 -2.93592e-25 -1.08608e-23 -2.18763e-24 5.03887e-24 -2.97446e-25 0
          6.76211e-25 6.35676e-26 -4.14078e-25 0 5.94099e-24 -9.18874e-24 0 9.75613e-25 -2.43792e-25 -6.24171e-25 1.52512e-23 -1.84444e-24
          -7.94763e-24 5.98242e-25 1.1457e-23 -1.88598e-23 2.52956e-23 -2.97194e-24 1.0569e-24 2.78585e-24 -3.7589e-24 2.70386e-24 -1.14307e-24 8.57756e-25
          -1.81933e-25 -7.9175e-23 7.36316e-24 1.39421e-23 -6.16209e-25 -8.08349e-24 2.37914e-25 -1.56246e-25 -4.0326e-26 -4.84718e-24 3.25012e-24 -5.76413e-24
          7.64353e-29 1.12043e-25 -1.3054e-24 -2.18672e-25 8.66997e-24 -8.0467e-25 1.08541e-23 2.86063e-25 -1.74114e-23 0 -3.41134e-25 -1.07665e-26
          3.59154e-25 -2.86521e-25 4.44079e-24 -1.31774e-24 7.79465e-25 1.30627e-24 -1.4429e-24 2.00261e-24 0 1.22497e-23 -1.40754e-24 -2.82213e-23
          -7.86416e-27 -1.92356e-26 -2.1787e-24 7.21338e-28 6.13277e-28 4.3916e-28 3.49983e-26 6.07755e-28 -1.44528e-24 -2.67702e-25 1.44726e-23 1.87164e-24
          3.30317e-24 -1.47817e-27 3.45818e-23 -2.04458e-27 -2.99519e-27 8.37107e-26 -2.47685e-26 -2.63505e-24 -8.84965e-24 1.14047e-27 -3.40217e-25 1.70553e-24
          -1.62519e-24 -9.43683e-24 -1.08047e-25 -2.37424e-24 -3.4737e-25 3.45945e-24 0 0 -7.35298e-25 -7.46082e-28 8.9666e-25 2.25468e-24
          2.83657e-27 4.92656e-26 1.37802e-27 -1.18547e-23 7.95613e-25 1.63551e-24 -2.13456e-25 -2.69058e-24 4.61123e-24 -8.78061e-24 6.55356e-24 9.82336e-25
          -1.00037e-28 -9.28796e-25 2.2935e-24 -8.02934e-25 0 -1.87683e-24 4.24345e-24 1.0897e-25 7.54266e-25 -1.2119e-25 2.20499e-24 3.33271e-27
          -5.80073e-24 1.86973e-24 8.07859e-25 1.65926e-25 1.12302e-24 5.60274e-24 1.96975e-24 -2.88796e-25 1.44398e-25 -5.15175e-24 1.56638e-24 -3.868e-25
          -1.60117e-26 -4.52729e-25 -3.39822e-23 5.88325e-26 -1.77981e-23 -3.75134e-24 -5.75794e-25 -2.86904e-24 4.23921e-24 -1.89216e-24 1.06188e-24 -2.15967e-25
          5.02857e-24 1.03543e-23 0 -1.48971e-25 8.9217e-25 4.51073e-24 1.71833e-25 -1.63448e-23 -7.83526e-24 6.22317e-27 -2.83099e-24 -1.2992e-24
          1.95654e-24 -6.28009e-25 -1.68779e-27 -1.14726e-25 9.18636e-28 5.67883e-25 -3.81193e-25 -1.34983e-27 2.99493e-23 -1.26366e-27 6.5759e-24 2.13509e-23
          -9.56231e-24 2.82666e-24 4.4428e-24 -7.96066e-24 1.71705e-27 -2.6921e-24 -4.91391e-24 -8.97313e-24 -2.12444e-28 4.26823e-25 6.11209e-24 1.38363e-27
          2.95476e-25 4.17683e-24 5.0279e-27 0 0 6.45418e-25 5.96512e-24 -8.90128e-25 5.10387e-24 0 2.02954e-24 0
          -1.27784e-24 -5.04312e-24 -5.33991e-29 -3.11367e-26 -3.66193e-24 4.49352e-27 3.35825e-27 2.39652e-27 5.11174e-24 2.20032e-27 -1.62518e-24 -2.40716e-24
          5.51862e-28 1.82773e-24 4.35502e-28 7.99986e-26 2.32782e-24 -1.30306e-23 0 -1.34043e-23 0 -2.30619e-27 3.53873e-24 -4.42942e-24
          -2.33076e-24 -5.10017e-28 1.56367e-24 0 5.11571e-24 0 1.19719e-24 3.13889e-24 5.41105e-24 1.36067e-25 -5.68241e-24 -5.81417e-24
          -2.68851e-24 2.21635e-25 9.49491e-26 8.9261e-28 -2.06578e-24 -1.25162e-24 4.4029e-24 -1.76038e-24 2.22451e-24 -2.10421e-24 6.64942e-25 1.18279e-23
          -9.34665e-26 -4.60331e-24 1.14368e-23 6.47936e-24 -3.89931e-24 8.68187e-26 1.1006e-24 8.95112e-29 1.23575e-24 1.67208e-27 -3.85781e-24 8.29141e-25
          -1.9197e-24 -1.97992e-25 -3.67052e-24 -1.71022e-25 -6.47382e-24 -5.91108e-24 1.14362e-23 3.18779e-25 4.19249e-24 1.30957e-24 -4.47255e-25 -1.01158e-24
          -1.06529e-24 6.54155e-25 0 -3.13132e-26 -1.78862e-24 5.57125e-24 -9.79279e-24 9.80052e-24 -6.90498e-24 -6.06499e-28 0 0
          2.98361e-25 -4.80937e-28 1.65351e-24 -1.23781e-24 -1.30046e-24 1.20395e-24 -2.03772e-24 -1.48954e-24 -1.61942e-24 2.25748e-26 7.28336e-25 -4.5012e-24
          1.60549e-23 -3.06943e-25 -7.68708e-24 5.44133e-25 1.13365e-24 5.81097e-28 -8.71869e-25 -1.90642e-27 -2.16332e-27 1.21653e-25 -3.61166e-24 6.3436e-25
          -1.53115e-25 1.22218e-23 -5.06989e-24 0 -3.25634e-25 -1.02586e-24 7.80554e-24 -8.84079e-25 0 -4.95523e-25 -1.9568e-27 -4.09437e-25
          6.93759e-25 -1.56926e-24 -2.54877e-24 -4.24185e-25 -3.24426e-24 1.25866e-24 -3.4879e-23 0 3.49565e-23 -2.57312e-23 2.13246e-23 5.36326e-25
        </DataArray>
        <DataArray type="Float32" Name="velocity[2]" NumberOfComponents="1" format="ascii">
          -2.38405e-09 1.26907e-08 -4.32464e-09 -5.05524e-09 -3.23704e-09 -3.24332e-09 -2.96701e-09 -2.5856e-09 -2.53464e-09 -2.78305e-09 -2.7697e-09 -2.54083e-09
          -2.11865e-09 -1.72101e-09 -1.18075e-09 -6.1214e-09 2.72728e-08 -3.54918e-09 -7.75137e-09 -1.93258e-09 -1.8666e-09 -1.42012e-09 -1.94071e-09 -2.24049e-09
          -2.92419e-09 -2.90357e-09 -3.54949e-09 -2.37884e-09 -1.35386e-09 -1.58704e-09 -2.32156e-09 3.45237e-08 -1.03721e-09 -4.49895e-09 -4.18921e-09 -3.51757e-09
          -2.22051e-09 -2.46081e-09 -3.26646e-09 -3.92361e-09 -3.32716e-09 -6.08551e-09 -2.88824e-09 -1.81581e-09 -2.14995e-09 -1.6082e-09 3.7705e-08 3.00132e-10
          9.54311e-09 -7.47023e-09 -8.85813e-09 -8.13403e-09 -5.82291e-09 -3.71277e-09 -4.39985e-09 -2.81037e-09 -8.35159e-09 -2.21653e-09 -2.11118e-09 -2.84068e-09
          -1.12596e-08 2.07597e-09 -1.26251e-09 -3.92047e-08 -1.69508e-08 -2.44879e-08 -2.26656e-08 -1.83896e-08 -3.79703e-09 -4.79977e-09 -3.95284e-09 -1.29297e-08
          -9.84432e-10 -1.41413e-09 -3.14392e-09 -3.50377e-08 -4.5489e-08 -3.23854e-09 -6.62243e-08 -2.30433e-08 -5.21343e-08 -2.82589e-08 -3.98331e-08 -2.44371e-09
          -2.615e-09 -3.44386e-09 -1.72722e-08 -7.9621e-10 -1.16998e-09 -3.42005e-09 -3.62409e-08 -4.05389e-08 -2.53505e-09 -2.39308e-08 -1.64671e-08 -7.91247e-08
          -2.39717e-08 -6.59724e-08 -2.1151e-09 -1.86052e-09 -3.60523e-09 -2.03253e-08 -6.9369e-10 -9.97205e-10 -3.56621e-09 -3.24514e-08 -3.63634e-08 -2.52127e-09
          -5.47964e-09 -7.22832e-09 -8.7063e-08 -1.49172e-08 -8.79325e-08 -1.8283e-09 -1.53008e-09 -3.5012e-09 -2.2324e-08 -9.11148e-10 -1.35775e-09 -4.04239e-09
          -2.89206e-08 -3.16325e-08 -2.20758e-09 -2.28963e-09 -4.91102e-09 -8.84943e-08 -6.91825e-09 -1.03081e-07 -1.26046e-09 -1.14655e-09 -4.30022e-09 -2.10006e-08
          -8.46479e-10 -1.24658e-09 -4.42832e-09 -2.43008e-08 -3.05181e-08 -3.85141e-09 -1.78877e-09 -3.7918e-09 -8.73595e-08 -4.31789e-09 -1.17264e-07 -1.15355e-09
          -1.08646e-09 -7.11268e-09 -1.81696e-08 -1.03385e-09 -1.20458e-09 -4.83635e-09 -1.72463e-08 -2.81303e-08 -5.15205e-09 -1.60097e-09 -3.28583e-09 -8.36636e-08
          -2.37668e-09 -1.25643e-07 -2.62936e-09 -1.47948e-09 -9.60013e-09 -1.63313e-08 -2.00187e-09 -1.29304e-09 -5.1362e-09 -1.32121e-08 -2.54703e-08 -5.78975e-09
          -1.09504e-09 -3.76151e-09 -7.9798e-08 -1.65355e-09 -1.09052e-07 -1.42368e-08 -3.8564e-09 -1.20089e-08 -1.51033e-08 -6.1542e-09 -2.33315e-09 -5.70236e-09
          -1.16038e-08 -2.41339e-08 -4.2666e-09 -9.96661e-10 -5.42e-09 -7.33311e-08 -3.26866e-09 -7.14053e-08 -3.0313e-08 -4.66725e-09 -1.10196e-08 -1.13928e-08
          -1.31945e-08 -5.76087e-09 -6.88532e-09 -1.13291e-08 -2.53757e-08 -2.53763e-09 -1.32308e-09 -7.57747e-09 -6.44427e-08 -2.09789e-09 -5.50499e-08 -2.73083e-08
          -1.20809e-08 -9.18763e-09 -4.88049e-09 -1.27213e-08 -7.69185e-09 -5.95459e-09 -1.1945e-08 -2.28931e-08 -1.97832e-09 -1.97345e-09 -1.4221e-08 -5.03101e-08
          -2.64582e-09 -6.78482e-08 -1.73056e-08 -9.89322e-09 -7.03881e-09 -3.94797e-09 -1.04425e-08 -1.04801e-08 -5.1746e-09 -1.37414e-08 -1.86662e-08 -2.36921e-09
          -3.25732e-09 -1.94793e-08 -4.90702e-08 -3.501e-09 -7.04038e-08 -2.23637e-08 -8.96866e-09 -5.63573e-09 -5.86928e-09 -1.28062e-08 -1.54373e-08 -4.12257e-09
          -1.27577e-08 -1.55717e-08 -3.88023e-09 -4.89964e-09 -1.51545e-08 -4.72618e-08 -4.2094e-09 -6.22988e-08 -2.49338e-08 -1.31131e-08 -3.92675e-09 -4.53977e-09
          -1.14792e-08 -2.29855e-08 -3.10453e-09 -1.06148e-08 -9.60992e-09 -2.87807e-09 -3.53716e-09 -2.05794e-08 -3.61465e-08 -5.25664e-09 -5.20034e-08 -2.86291e-08
          -1.9044e-08 -3.57215e-09 -3.85561e-09 -7.50084e-09 -2.82915e-08 -2.52241e-09 -1.07653e-08 -6.331e-09 -2.09352e-09 -1.89238e-09 -2.40475e-08 -2.38474e-08
          -5.0179e-09 -3.9919e-08 -3.03955e-08 -3.03366e-08 -3.70455e-09 -4.08466e-09 -8.6782e-09 -3.23825e-08 -2.78622e-09 -9.4734e-09 -4.56941e-09 -1.45281e-09
          -1.36947e-09 -2.47488e-08 -1.42805e-08 -4.47388e-09 -3.04461e-08 -2.31099e-08 -5.16329e-08 -3.76453e-09 -3.82708e-09 -1.06482e-08 -3.42408e-08 -3.538e-09
          -7.57822e-09 -3.65747e-09 -1.60583e-09 -1.28988e-09 -2.31831e-08 -8.94183e-09 -4.16342e-09 -2.462e-08 -1.16472e-08 -6.81137e-08 -4.15006e-09 -4.76201e-09
          -1.30802e-08 -3.60882e-08 -3.94692e-09 -5.0391e-09 -2.50147e-09 -1.77292e-09 -1.46414e-09 -1.79421e-08 -7.66285e-09 -4.51686e-09 -2.37445e-08 -7.42538e-09
          -7.17742e-08 -5.29008e-09 -7.25358e-09 -1.46479e-08 -3.85733e-08 -5.60964e-09 -2.48722e-09 -1.35422e-09 -1.25521e-09 -1.35555e-09 -1.01814e-08 -6.91513e-09
          -4.81511e-09 -2.55599e-08 -7.18593e-09 -6.44078e-08 -8.77953e-09 -1.25542e-08 -2.02355e-08 -4.07972e-08 -7.08697e-09 -7.72819e-10 -5.76464e-10 -4.31661e-10
          -4.37526e-10 -2.77189e-09 -2.95203e-09 -2.39963e-09 -1.4804e-08 -7.42636e-09 -3.75118e-08 -1.60842e-08 -1.41148e-08 -1.61497e-08 -2.26507e-08 -3.80306e-09
        </DataArray>
        <DataArray type="Float32" Name="z[0]" NumberOfComponents="1" format="ascii">
          0.150578 0.150579 0.15058 0.150582 0.150582 0.150583 0.150584 0.150585 0.150585 0.150586 0.150587 0.150588
          0.150589 0.150591 0.150596 0.150581 0.150582 0.150583 0.150585 0.150586 0.150587 0.150587 0.150588 0.150588
          0.150589 0.15059 0.150591 0.150593 0.150595 0.150599 0.150584 0.150585 0.150587 0.150588 0.150589 0.15059
          0.15059 0.150591 0.150592 0.150593 0.150593 0.150595 0.150596 0.150598 0.150602 0.150588 0.150589 0.15059
          0.150591 0.150592 0.150593 0.150594 0.150594 0.150595 0.150596 0.150597 0.150598 0.150599 0.150601 0.150605
          0.150591 0.150592 0.150593 0.150594 0.150595 0.150596 0.150597 0.150597 0.150598 0.150599 0.1506 0.150601
          0.150602 0.150604 0.150609 0.150594 0.150595 0.150596 0.150597 0.150598 0.150599 0.1506 0.1506 0.150601
          0.150602 0.150603 0.150604 0.150605 0.150607 0.150612 0.150597 0.150598 0.150599 0.150601 0.150601 0.150602