<?xml version="1.0"?>
<VTKFile type="UnstructuredGrid" version="0.1" byte_order="LittleEndian">
  <UnstructuredGrid>
    <Piece NumberOfCells="360" NumberOfPoints="800">
      <CellData Scalars="pressure[0]">
        <DataArray type="Float32" Name="pressure[0]" NumberOfComponents="1" format="ascii">
          2.10749e+07 2.10895e+07 2.17668e+07 2.24599e+07 2.28472e+07 2.32597e+07 2.33879e+07 2.34355e+07 2.34938e+07 2.35577e+07 2.37312e+07 2.40179e+07
          2.423e+07 2.48207e+07 2.55445e+07 2.11193e+07 2.11338e+07 2.1882e+07 2.26101e+07 2.30279e+07 2.34389e+07 2.35326e+07 2.35698e+07 2.36295e+07
          2.37008e+07 2.39399e+07 2.42294e+07 2.44035e+07 2.50152e+07 2.57099e+07 2.12133e+07 2.12597e+07 2.19905e+07 2.27594e+07 2.31351e+07 2.35197e+07
          2.36319e+07 2.36855e+07 2.3762e+07 2.38579e+07 2.41788e+07 2.45058e+07 2.46826e+07 2.52543e+07 2.59176e+07 2.13417e+07 2.13882e+07 2.1852e+07
          2.2895e+07 2.32713e+07 2.36439e+07 2.37456e+07 2.37937e+07 2.39078e+07 2.40524e+07 2.44779e+07 2.48635e+07 2.50413e+07 2.5538e+07 2.61749e+07
          2.14729e+07 2.14956e+07 1.9807e+07 2.29963e+07 2.34739e+07 2.38642e+07 2.39298e+07 2.39652e+07 2.41414e+07 2.44021e+07 2.48438e+07 2.52091e+07
          2.53926e+07 2.58582e+07 2.6428e+07 2.16767e+07 2.17197e+07 2.23701e+07 2.35478e+07 2.38777e+07 2.41275e+07 2.417e+07 2.42059e+07 2.44324e+07
          2.48337e+07 2.52839e+07 2.55216e+07 2.57194e+07 2.618e+07 2.67111e+07 2.19401e+07 2.19911e+07 2.31193e+07 2.40231e+07 2.42314e+07 2.43998e+07
          2.44384e+07 2.44712e+07 2.46891e+07 2.52408e+07 2.56887e+07 2.57983e+07 2.59873e+07 2.65284e+07 2.71033e+07 2.23196e+07 2.23753e+07 2.35174e+07
          2.43622e+07 2.45501e+07 2.46675e+07 2.4695e+07 2.47171e+07 2.4995e+07 2.55748e+07 2.59621e+07 2.60509e+07 2.6303e+07 2.68901e+07 2.76431e+07
          2.28716e+07 2.29356e+07 2.38556e+07 2.4638e+07 2.48575e+07 2.49523e+07 2.50079e+07 2.51733e+07 2.54853e+07 2.60025e+07 2.6256e+07 2.62987e+07
          2.65564e+07 2.73035e+07 2.8183e+07 2.35397e+07 2.36435e+07 2.41446e+07 2.47417e+07 2.5122e+07 2.52034e+07 2.53278e+07 2.57959e+07 2.60545e+07
          2.64364e+07 2.6619e+07 2.66567e+07 2.69318e+07 2.77267e+07 2.85067e+07 2.43161e+07 2.44327e+07 2.46888e+07 2.50568e+07 2.53447e+07 2.54049e+07
          2.56001e+07 2.63975e+07 2.66116e+07 2.68519e+07 2.69964e+07 2.70469e+07 2.72898e+07 2.80887e+07 2.8747e+07 2.50413e+07 2.51114e+07 2.52211e+07
          2.54078e+07 2.55627e+07 2.55994e+07 2.58682e+07 2.70302e+07 2.71599e+07 2.72884e+07 2.7389e+07 2.74537e+07 2.77087e+07 2.84606e+07 2.90046e+07
          2.55918e+07 2.56393e+07 2.56679e+07 2.57987e+07 2.58706e+07 2.5864e+07 2.67132e+07 2.75949e+07 2.76364e+07 2.77552e+07 2.78499e+07 2.79703e+07
          2.82137e+07 2.88476e+07 2.97014e+07 2.60325e+07 2.60822e+07 2.61367e+07 2.64201e+07 2.65849e+07 2.68744e+07 2.756e+07 2.823e+07 2.82778e+07
          2.8302e+07 2.83164e+07 2.84824e+07 2.96176e+07 3.03378e+07 3.01538e+07 2.63873e+07 2.64271e+07 2.66932e+07 2.71535e+07 2.78207e+07 2.793e+07
          2.83667e+07 2.87784e+07 2.88282e+07 2.8894e+07 2.8988e+07 2.98537e+07 3.06782e+07 3.08613e+07 3.07078e+07 2.67053e+07 2.67568e+07 2.72458e+07
          2.77962e+07 2.84876e+07 2.8577e+07 2.89032e+07 2.91376e+07 2.91901e+07 2.9272e+07 2.95885e+07 3.04417e+07 3.1087e+07 3.14385e+07 3.12357e+07
          2.76326e+07 2.76625e+07 2.78421e+07 2.88085e+07 2.90419e+07 2.90836e+07 2.92384e+07 2.93788e+07 2.94291e+07 2.94958e+07 2.99504e+07 3.09739e+07
          3.16625e+07 3.20034e+07 3.17212e+07 2.83954e+07 2.84501e+07 2.88335e+07 2.92023e+07 2.93638e+07 2.94093e+07 2.95239e+07 2.96226e+07 2.96752e+07
          2.97356e+07 3.0303e+07 3.13909e+07 3.20953e+07 3.2369e+07 3.2207e+07 2.87414e+07 2.88093e+07 2.90562e+07 2.9439e+07 2.96354e+07 2.96843e+07
          2.97796e+07 2.98619e+07 2.99097e+07 2.99676e+07 3.0594e+07 3.18005e+07 3.25233e+07 3.27226e+07 3.28913e+07 2.90132e+07 2.90731e+07 2.92999e+07
          2.96771e+07 2.98669e+07 2.99162e+07 3.00061e+07 3.00816e+07 3.01299e+07 3.01953e+07 3.08164e+07 3.21486e+07 3.29445e+07 3.30966e+07 3.35421e+07
          2.92361e+07 2.93058e+07 2.94846e+07 2.98315e+07 3.00689e+07 3.0124e+07 3.02193e+07 3.02977e+07 3.03655e+07 3.04511e+07 3.13335e+07 3.27599e+07
          3.33334e+07 3.34955e+07 3.40461e+07 2.9448e+07 2.95209e+07 2.96788e+07 3.00171e+07 3.02589e+07 3.03204e+07 3.04307e+07 3.05202e+07 3.06106e+07
          3.07112e+07 3.19057e+07 3.33885e+07 3.37376e+07 3.39394e+07 3.45369e+07 2.9638e+07 2.97035e+07 2.98965e+07 3.02533e+07 3.04488e+07 3.05209e+07
          3.06513e+07 3.07554e+07 3.08744e+07 3.1002e+07 3.23872e+07 3.39033e+07 3.42009e+07 3.44295e+07 3.48824e+07 2.98083e+07 2.987e+07 3.00376e+07
          3.03951e+07 3.0648e+07 3.07222e+07 3.08697e+07 3.09915e+07 3.11384e+07 3.13132e+07 3.2922e+07 3.43477e+07 3.46793e+07 3.48843e+07 3.51851e+07
        </DataArray>
        <DataArray type="Float32" Name="pressure[1]" NumberOfComponents="1" format="ascii">
          2.10749e+07 2.10895e+07 2.17668e+07 2.24599e+07 2.28472e+07 2.32597e+07 2.33879e+07 2.34355e+07 2.34938e+07 2.35577e+07 2.37312e+07 2.40179e+07
          2.423e+07 2.48207e+07 2.55445e+07 2.11193e+07 2.11338e+07 2.1882e+07 2.26101e+07 2.30279e+07 2.34389e+07 2.35326e+07 2.35698e+07 2.36295e+07
          2.37008e+07 2.39399e+07 2.42294e+07 2.44035e+07 2.50152e+07 2.57099e+07 2.12133e+07 2.12597e+07 2.19905e+07 2.27594e+07 2.31351e+07 2.35197e+07
          2.36319e+07 2.36855e+07 2.3762e+07 2.38579e+07 2.41788e+07 2.45058e+07 2.46826e+07 2.52543e+07 2.59176e+07 2.13417e+07 2.13882e+07 2.1852e+07
          2.2895e+07 2.32713e+07 2.36439e+07 2.37456e+07 2.37937e+07 2.39078e+07 2.40524e+07 2.44779e+07 2.48635e+07 2.50413e+07 2.5538e+07 2.61749e+07
          2.14729e+07 2.14956e+07 1.9807e+07 2.29963e+07 2.34739e+07 2.38642e+07 2.39298e+07 2.39652e+07 2.41414e+07 2.44021e+07 2.48438e+07 2.52091e+07
          2.53926e+07 2.58582e+07 2.6428e+07 2.16767e+07 2.17197e+07 2.23701e+07 2.35478e+07 2.38777e+07 2.41275e+07 2.417e+07 2.42059e+07 2.44324e+07
          2.48337e+07 2.52839e+07 2.55216e+07 2.57194e+07 2.618e+07 2.67111e+07 2.19401e+07 2.19911e+07 2.31193e+07 2.40231e+07 2.42314e+07 2.43998e+07
          2.44384e+07 2.44712e+07 2.46891e+07 2.52408e+07 2.56887e+07 2.57983e+07 2.59873e+07 2.65284e+07 2.71033e+07 2.23196e+07 2.23753e+07 2.35174e+07
          2.43622e+07 2.45501e+07 2.46675e+07 2.4695e+07 2.47171e+07 2.4995e+07 2.55748e+07 2.59621e+07 2.60509e+07 2.6303e+07 2.68901e+07 2.76431e+07
          2.28716e+07 2.29356e+07 2.38556e+07 2.4638e+07 2.48575e+07 2.49523e+07 2.50079e+07 2.51733e+07 2.54853e+07 2.60025e+07 2.6256e+07 2.62987e+07
          2.65564e+07 2.73035e+07 2.8183e+07 2.35397e+07 2.36435e+07 2.41446e+07 2.47417e+07 2.5122e+07 2.52034e+07 2.53278e+07 2.57959e+07 2.60545e+07
          2.64364e+07 2.6619e+07 2.66567e+07 2.69318e+07 2.77267e+07 2.85067e+07 2.43161e+07 2.44327e+07 2.46888e+07 2.50568e+07 2.53447e+07 2.54049e+07
          2.56001e+07 2.63975e+07 2.66116e+07 2.68519e+07 2.69964e+07 2.70469e+07 2.72898e+07 2.80887e+07 2.8747e+07 2.50413e+07 2.51114e+07 2.52211e+07
          2.54078e+07 2.55627e+07 2.55994e+07 2.58682e+07 2.70302e+07 2.71599e+07 2.72884e+07 2.7389e+07 2.74537e+07 2.77087e+07 2.84606e+07 2.90046e+07
          2.55918e+07 2.56393e+07 2.56679e+07 2.57987e+07 2.58706e+07 2.5864e+07 2.67132e+07 2.75949e+07 2.76364e+07 2.77552e+07 2.78499e+07 2.79703e+07
          2.82137e+07 2.88476e+07 2.97014e+07 2.60325e+07 2.60822e+07 2.61367e+07 2.64201e+07 2.65849e+07 2.68744e+07 2.756e+07 2.823e+07 2.82778e+07
          2.8302e+07 2.83164e+07 2.84824e+07 2.96176e+07 3.03378e+07 3.01538e+07 2.63873e+07 2.64271e+07 2.66932e+07 2.71535e+07 2.78207e+07 2.793e+07
          2.83667e+07 2.87784e+07 2.88282e+07 2.8894e+07 2.8988e+07 2.98537e+07 3.06782e+07 3.08613e+07 3.07078e+07 2.67053e+07 2.67568e+07 2.72458e+07
          2.77962e+07 2.84876e+07 2.8577e+07 2.89032e+07 2.91376e+07 2.91901e+07 2.9272e+07 2.95885e+07 3.04417e+07 3.1087e+07 3.14385e+07 3.12357e+07
          2.76326e+07 2.76625e+07 2.78421e+07 2.88085e+07 2.90419e+07 2.90836e+07 2.92384e+07 2.93788e+07 2.94291e+07 2.94958e+07 2.99504e+07 3.09739e+07
          3.16625e+07 3.20034e+07 3.17212e+07 2.83954e+07 2.84501e+07 2.88335e+07 2.92023e+07 2.93638e+07 2.94093e+07 2.95239e+07 2.96226e+07 2.96752e+07
          2.97356e+07 3.0303e+07 3.13909e+07 3.20953e+07 3.2369e+07 3.2207e+07 2.87414e+07 2.88093e+07 2.90562e+07 2.9439e+07 2.96354e+07 2.96843e+07
          2.97796e+07 2.98619e+07 2.99097e+07 2.99676e+07 3.0594e+07 3.18005e+07 3.25233e+07 3.27226e+07 3.28913e+07 2.90132e+07 2.90731e+07 2.92999e+07
          2.96771e+07 2.98669e+07 2.99162e+07 3.00061e+07 3.00816e+07 3.01299e+07 3.01953e+07 3.08164e+07 3.21486e+07 3.29445e+07 3.30966e+07 3.35421e+07
          2.92361e+07 2.93058e+07 2.94846e+07 2.98315e+07 3.00689e+07 3.0124e+07 3.02193e+07 3.02977e+07 3.03655e+07 3.04511e+07 3.13335e+07 3.27599e+07
          3.33334e+07 3.34955e+07 3.40461e+07 2.9448e+07 2.95209e+07 2.96788e+07 3.00171e+07 3.02589e+07 3.03204e+07 3.04307e+07 3.05202e+07 3.06106e+07
          3.07112e+07 3.19057e+07 3.33885e+07 3.37376e+07 3.39394e+07 3.45369e+07 2.9638e+07 2.97035e+07 2.98965e+07 3.02533e+07 3.04488e+07 3.05209e+07
          3.06513e+07 3.07554e+07 3.08744e+07 3.1002e+07 3.23872e+07 3.39033e+07 3.42009e+07 3.44295e+07 3.48824e+07 2.98083e+07 2.987e+07 3.00376e+07
          3.03951e+07 3.0648e+07 3.07222e+07 3.08697e+07 3.09915e+07 3.11384e+07 3.13132e+07 3.2922e+07 3.43477e+07 3.46793e+07 3.48843e+07 3.51851e+07
        </DataArray>
        <DataArray type="Float32" Name="pressure[2]" NumberOfComponents="1" format="ascii">
          2.10749e+07 2.10895e+07 2.17668e+07 2.24599e+07 2.28472e+07 2.32597e+07 2.33879e+07 2.34355e+07 2.34938e+07 2.35577e+07 2.37312e+07 2.40179e+07
          2.423e+07 2.48207e+07 2.55445e+07 2.11193e+07 2.11338e+07 2.1882e+07 2.26101e+07 2.30279e+07 2.34389e+07 2.35326e+07 2.35698e+07 2.36295e+07
          2.37008e+07 2.39399e+07 2.42294e+07 2.44035e+07 2.50152e+07 2.57099e+07 2.12133e+07 2.12597e+07 2.19905e+07 2.27594e+07 2.31351e+07 2.35197e+07
          2.36319e+07 2.36855e+07 2.3762e+07 2.38579e+07 2.41788e+07 2.45058e+07 2.46826e+07 2.52543e+07 2.59176e+07 2.13417e+07 2.13882e+07 2.1852e+07
          2.2895e+07 2.32713e+07 2.36439e+07 2.37456e+07 2.37937e+07 2.39078e+07 2.40524e+07 2.44779e+07 2.48635e+07 2.50413e+07 2.5538e+07 2.61749e+07
          2.14729e+07 2.14956e+07 1.9807e+07 2.29963e+07 2.34739e+07 2.38642e+07 2.39298e+07 2.39652e+07 2.41414e+07 2.44021e+07 2.48438e+07 2.52091e+07
          2.53926e+07 2.58582e+07 2.6428e+07 2.16767e+07 2.17197e+07 2.23701e+07 2.35478e+07 2.38777e+07 2.41275e+07 2.417e+07 2.42059e+07 2.44324e+07
          2.48337e+07 2.52839e+07 2.55216e+07 2.57194e+07 2.618e+07 2.67111e+07 2.19401e+07 2.19911e+07 2.31193e+07 2.40231e+07 2.42314e+07 2.43998e+07
          2.44384e+07 2.44712e+07 2.46891e+07 2.52408e+07 2.56887e+07 2.57983e+07 2.59873e+07 2.65284e+07 2.71033e+07 2.23196e+07 2.23753e+07 2.35174e+07
          2.43622e+07 2.45501e+07 2.46675e+07 2.4695e+07 2.47171e+07 2.4995e+07 2.55748e+07 2.59621e+07 2.60509e+07 2.6303e+07 2.68901e+07 2.76431e+07
          2.28716e+07 2.29356e+07 2.38556e+07 2.4638e+07 2.48575e+07 2.49523e+07 2.50079e+07 2.51733e+07 2.54853e+07 2.60025e+07 2.6256e+07 2.62987e+07
          2.65564e+07 2.73035e+07 2.8183e+07 2.35397e+07 2.36435e+07 2.41446e+07 2.47417e+07 2.5122e+07 2.52034e+07 2.53278e+07 2.57959e+07 2.60545e+07
          2.64364e+07 2.6619e+07 2.66567e+07 2.69318e+07 2.77267e+07 2.85067e+07 2.43161e+07 2.44327e+07 2.46888e+07 2.50568e+07 2.53447e+07 2.54049e+07
          2.56001e+07 2.63975e+07 2.66116e+07 2.68519e+07 2.69964e+07 2.70469e+07 2.72898e+07 2.80887e+07 2.8747e+07 2.50413e+07 2.51114e+07 2.52211e+07
          2.54078e+07 2.55627e+07 2.55994e+07 2.58682e+07 2.70302e+07 2.71599e+07 2.72884e+07 2.7389e+07 2.74537e+07 2.77087e+07 2.84606e+07 2.90046e+07
          2.55918e+07 2.56393e+07 2.56679e+07 2.57987e+07 2.58706e+07 2.5864e+07 2.67132e+07 2.75949e+07 2.76364e+07 2.77552e+07 2.78499e+07 2.79703e+07
          2.82137e+07 2.88476e+07 2.97014e+07 2.60325e+07 2.60822e+07 2.61367e+07 2.64201e+07 2.65849e+07 2.68744e+07 2.756e+07 2.823e+07 2.82778e+07
          2.8302e+07 2.83164e+07 2.84824e+07 2.96176e+07 3.03378e+07 3.01538e+07 2.63873e+07 2.64271e+07 2.66932e+07 2.71535e+07 2.78207e+07 2.793e+07
          2.83667e+07 2.87784e+07 2.88282e+07 2.8894e+07 2.8988e+07 2.98537e+07 3.06782e+07 3.08613e+07 3.07078e+07 2.67053e+07 2.67568e+07 2.72458e+07
          2.77962e+07 2.84876e+07 2.8577e+07 2.89032e+07 2.91376e+07 2.91901e+07 2.9272e+07 2.95885e+07 3.04417e+07 3.1087e+07 3.14385e+07 3.12357e+07
          2.76326e+07 2.76625e+07 2.78421e+07 2.88085e+07 2.90419e+07 2.90836e+07 2.92384e+07 2.93788e+07 2.94291e+07 2.94958e+07 2.99504e+07 3.09739e+07
          3.16625e+07 3.20034e+07 3.17212e+07 2.83954e+07 2.84501e+07 2.88335e+07 2.92023e+07 2.93638e+07 2.94093e+07 2.95239e+07 2.96226e+07 2.96752e+07
          2.97356e+07 3.0303e+07 3.13909e+07 3.20953e+07 3.2369e+07 3.2207e+07 2.87414e+07 2.88093e+07 2.90562e+07 2.9439e+07 2.96354e+07 2.96843e+07
          2.97796e+07 2.98619e+07 2.99097e+07 2.99676e+07 3.0594e+07 3.18005e+07 3.25233e+07 3.27226e+07 3.28913e+07 2.90132e+07 2.90731e+07 2.92999e+07
          2.96771e+07 2.98669e+07 2.99162e+07 3.00061e+07 3.00816e+07 3.01299e+07 3.01953e+07 3.08164e+07 3.21486e+07 3.29445e+07 3.30966e+07 3.35421e+07
          2.92361e+07 2.93058e+07 2.94846e+07 2.98315e+07 3.00689e+07 3.0124e+07 3.02193e+07 3.02977e+07 3.03655e+07 3.04511e+07 3.13335e+07 3.27599e+07
          3.33334e+07 3.34955e+07 3.40461e+07 2.9448e+07 2.95209e+07 2.96788e+07 3.00171e+07 3.02589e+07 3.03204e+07 3.04307e+07 3.05202e+07 3.06106e+07
          3.07112e+07 3.19057e+07 3.33885e+07 3.37376e+07 3.39394e+07 3.45369e+07 2.9638e+07 2.97035e+07 2.98965e+07 3.02533e+07 3.04488e+07 3.05209e+07
          3.06513e+07 3.07554e+07 3.08744e+07 3.1002e+07 3.23872e+07 3.39033e+07 3.42009e+07 3.44295e+07 3.48824e+07 2.98083e+07 2.987e+07 3.00376e+07
          3.03951e+07 3.0648e+07 3.07222e+07 3.08697e+07 3.09915e+07 3.11384e+07 3.13132e+07 3.2922e+07 3.43477e+07 3.46793e+07 3.48843e+07 3.51851e+07
        </DataArray>
        <DataArray type="Float32" Name="velocity[0]" NumberOfComponents="1" format="ascii">
          -8.25949e-10 4.05251e-08 1.34602e-10 -4.74821e-09 -3.68663e-10 -1.48002e-09 -6.1435e-10 1.12162e-09 1.76569e-09 -3.40671e-10 -1.80299e-09 -2.45124e-09
          -1.69997e-09 -5.859e-10 -2.53674e-09 -1.33285e-08 1.29568e-07 2.44926e-10 -2.03597e-08 -6.21626e-11 1.51817e-09 7.40774e-09 5.18842e-09 3.8417e-09
          -2.28465e-09 -3.77133e-09 -1.05556e-08 -6.49146e-09 -1.72009e-09 -6.71967e-09 -2.05964e-08 1.83431e-07 1.0241e-09 6.49413e-11 3.76464e-10 4.29394e-09
          1.27801e-08 9.38124e-09 1.6361e-09 -5.84879e-09 -4.44521e-09 -2.65308e-08 -9.2656e-09 -3.59382e-09 -1.00616e-08 -1.42743e-08 1.93176e-07 7.48691e-09
          8.2828e-08 -1.77393e-09 -9.95832e-09 -7.95307e-09 -2.06365e-09 -4.49206e-09 -1.28541e-08 -5.64059e-09 -4.55975e-08 -6.59328e-09 -5.25643e-09 -1.37317e-08
          -9.50508e-08 -2.90406e-08 -2.91877e-10 -1.33353e-07 -1.52519e-08 -6.08304e-08 -6.85821e-08 -5.16644e-08 -7.0012e-09 -1.31443e-08 -7.98609e-09 -7.71364e-08
          -3.32591e-09 -4.81696e-09 -1.69343e-08 -1.86743e-07 -2.31801e-07 -8.42681e-09 -2.79666e-07 -3.33023e-08 -1.84075e-07 -1.05779e-07 -1.43881e-07 -4.56519e-09
          -5.78997e-09 -1.20665e-08 -1.12063e-07 -1.95345e-09 -3.83885e-09 -1.90918e-08 -1.86668e-07 -2.00229e-07 -2.45043e-09 -9.2188e-08 -3.20489e-08 -3.2736e-07
          -8.69299e-08 -2.34016e-07 -3.43016e-09 -2.49161e-09 -1.48317e-08 -1.36547e-07 -1.71509e-09 -3.79696e-09 -2.05901e-08 -1.68412e-07 -1.82264e-07 -1.96537e-09
          -1.57316e-08 -2.04947e-08 -4.24911e-07 -5.67612e-08 -2.37715e-07 -4.32041e-09 -2.23096e-09 -1.7238e-08 -1.55329e-07 -1.44712e-09 -3.94029e-09 -2.22832e-08
          -1.50527e-07 -1.62912e-07 -2.32945e-09 -2.39764e-09 -1.43577e-08 -4.57653e-07 -2.61821e-08 -2.49662e-07 -4.70456e-09 -2.80114e-09 -3.01312e-08 -1.53438e-07
          -1.42577e-09 -3.61221e-09 -2.45134e-08 -1.21879e-07 -1.49483e-07 -8.67075e-09 -4.89804e-10 -1.04159e-08 -4.27887e-07 -8.29147e-09 -3.51272e-07 -4.97239e-09
          -3.23034e-09 -5.23232e-08 -1.33153e-07 -2.3795e-09 -3.13332e-09 -2.67233e-08 -8.94311e-08 -1.41657e-07 -1.92723e-08 -1.31259e-09 -9.74194e-09 -3.85998e-07
          -2.79563e-09 -4.34982e-07 -1.14289e-08 -4.78668e-09 -6.76758e-08 -1.11048e-07 -6.29834e-09 -3.64852e-09 -2.86837e-08 -7.14309e-08 -1.35562e-07 -2.66056e-08
          -1.11804e-09 -1.74973e-08 -3.44223e-07 -2.06961e-09 -4.09967e-07 -4.62283e-08 -9.25513e-09 -7.25046e-08 -8.23515e-08 -2.04688e-08 -6.59124e-09 -3.07248e-08
          -6.5782e-08 -1.39045e-07 -2.44017e-08 -2.88195e-09 -4.49841e-08 -2.67678e-07 -2.3469e-09 -3.93962e-07 -7.08719e-08 -2.12375e-08 -6.64477e-08 -4.14042e-08
          -3.35686e-08 -1.862e-08 -3.32057e-08 -6.44143e-08 -1.46788e-07 -1.50897e-08 -6.75847e-09 -5.29367e-08 -2.21616e-07 -2.33134e-09 -4.37995e-07 -8.22153e-08
          -2.75533e-08 -4.29637e-08 -1.26891e-08 -3.58489e-08 -3.59816e-08 -3.3475e-08 -6.78477e-08 -1.31389e-07 -9.37e-09 -1.02214e-08 -3.85999e-08 -2.35627e-07
          -1.8371e-09 -4.40605e-07 -1.00908e-07 -2.74127e-08 -2.2424e-08 -6.0958e-09 -3.64228e-08 -5.06899e-08 -3.04784e-08 -6.948e-08 -9.60877e-08 -9.34522e-09
          -1.06981e-08 -4.202e-08 -2.48154e-07 -2.20072e-09 -3.89446e-07 -1.06628e-07 -3.28921e-08 -1.166e-08 -6.71719e-09 -4.15472e-08 -7.15294e-08 -2.59289e-08
          -6.87595e-08 -6.5491e-08 -8.95072e-09 -9.59416e-09 -6.08748e-08 -2.25842e-07 -3.80312e-09 -3.14571e-07 -1.10028e-07 -5.06674e-08 -4.15386e-09 -5.83165e-09
          -3.37429e-08 -1.0464e-07 -2.07318e-08 -7.03974e-08 -4.66859e-08 -4.39229e-09 -5.63843e-09 -8.87103e-08 -1.62394e-07 -5.45288e-09 -2.46298e-07 -1.22542e-07
          -8.03525e-08 -2.84218e-09 -3.85287e-09 -2.17204e-08 -1.36016e-07 -1.62572e-08 -6.46613e-08 -3.24497e-08 -2.22251e-09 -1.80834e-09 -1.07462e-07 -1.01783e-07
          -5.70784e-09 -1.81006e-07 -1.25559e-07 -1.30356e-07 -1.64888e-09 -3.16062e-09 -2.82855e-08 -1.55118e-07 -1.42868e-08 -5.41177e-08 -2.18213e-08 -1.84022e-09
          -7.66441e-10 -1.12314e-07 -5.69325e-08 -4.72647e-09 -1.33949e-07 -8.2495e-08 -2.30793e-07 -2.92835e-09 -4.49997e-09 -4.20263e-08 -1.64351e-07 -1.54275e-08
          -4.14661e-08 -1.46505e-08 -1.59321e-09 -1.84505e-10 -1.03132e-07 -2.93439e-08 -4.02733e-09 -1.06155e-07 -3.49389e-08 -3.23195e-07 -4.61576e-09 -8.29698e-09
          -5.11172e-08 -1.7166e-07 -1.77755e-08 -2.60919e-08 -7.46894e-09 -2.48375e-09 -9.48729e-10 -7.57148e-08 -1.98047e-08 -3.95483e-09 -1.01717e-07 -1.91321e-08
          -3.43164e-07 -4.21556e-09 -1.59456e-08 -5.5946e-08 -1.79132e-07 -2.20946e-08 -1.21806e-08 -2.98551e-09 -1.1167e-09 -6.25019e-10 -3.76949e-08 -1.47756e-08
          -3.26582e-09 -1.08558e-07 -1.55182e-08 -2.96431e-07 -5.85318e-09 -2.74957e-08 -7.33526e-08 -1.86598e-07 -2.8883e-08 -3.22752e-09 -6.72694e-10 2.47801e-10
          9.47172e-11 -8.89924e-09 -5.6407e-09 -1.19964e-09 -5.55624e-08 -7.24505e-09 -1.28312e-07 -3.8625e-09 -1.6681e-08 -4.3798e-08 -9.58944e-08 -1.62237e-08
        </DataArray>
        <DataArray type="Float32" Name="velocity[1]" NumberOfComponents="1" format="ascii">
          1.28362e-25 6.45248e-24 1.36425e-25 -7.37927e-25 5.72945e-26 0 9.54773e-26 -1.1829e-25 8.44205e-26 5.38311e-24 -3.54117e-24 6.21128e-26
          2.27827e-24 -8.81247e-25 3.93815e-25 1.81468e-24 7.41362e-24 1.27906e-25 -1.68828e-24 -2.12697e-25 7.33667e-24 1.03281e-24 2.37088e-25 -6.92575e-24
          -1.95492e-25 0 -6.05848e-26 6.44474e-26 3.97564e-28 2.55836e-25 -6.85153e-25 -1.06413e-23 -1.84445e-24 4.86251e-24 -2.25195e-25 0
          4.01295e-25 -2.54373e-25 -3.91004e-25 0 6.64625e-24 -1.03511e-23 0 1.05593e-24 -2.64425e-25 -5.24042e-25 1.37405e-23 -1.65406e-24
          -8.13631e-24 4.34708e-25 1.04445e-23 -2.04729e-23 2.51604e-23 -3.61497e-24 1.13109e-24 3.2208e-24 -4.25511e-24 2.93465e-24 -1.22911e-24 9.20949e-25
          -1.43772e-25 -7.04381e-23 6.50096e-24 1.20601e-23 -4.79044e-25 -6.27018e-24 1.50534e-25 -1.11921e-25 -2.03054e-26 -5.95678e-24 3.89539e-24 -7.0845e-24
          -4.43758e-28 1.20346e-25 -1.41134e-24 -1.81827e-25 7.41553e-24 -6.85798e-25 8.41006e-24 1.96241e-25 -1.36284e-23 0 -1.54439e-25 3.33622e-26
          4.03022e-25 -3.77456e-25 5.23913e-24 -1.36504e-24 8.07346e-25 1.41041e-24 -1.20679e-24 1.48123e-24 0 1.05933e-23 -1.07902e-24 -2.42561e-23
          -1.2351e-25 -1.69908e-25 -2.96011e-24 5.97417e-28 -6.16643e-28 -8.39441e-28 3.48144e-26 -3.1152e-28 -1.55576e-24 -2.24764e-25 1.33572e-23 1.53871e-24
          3.11489e-24 -7.15458e-26 2.40444e-23 -6.55571e-26 -4.71142e-26 -2.16383e-25 -6.85675e-26 -3.60533e-24 -1.1687e-23 -3.76781e-28 -3.48412e-25 1.81888e-24
          -1.58527e-24 -9.35575e-24 -1.17781e-25 -1.97162e-24 -3.59188e-25 4.39082e-24 0 0 -9.6556e-25 3.96993e-28 1.13153e-24 2.5873e-24
          -7.54512e-28 4.78558e-26 -3.68484e-28 -1.10203e-23 9.7876e-25 1.38076e-24 -8.79101e-26 -2.2556e-24 6.20213e-24 -1.15641e-23 9.10028e-24 1.00551e-24
          -4.64689e-26 -9.2284e-25 2.8275e-24 -7.95168e-25 0 -1.99079e-24 4.35892e-24 1.45599e-25 6.89434e-25 -1.23188e-25 1.63348e-24 1.36925e-27
          -8.00139e-24 7.83041e-24 9.14623e-25 1.96053e-25 6.72204e-25 7.78802e-24 2.00142e-24 -2.66931e-25 1.33466e-25 -5.12366e-24 8.35283e-25 -4.55967e-25
          -2.8077e-26 3.56202e-25 -2.49433e-23 2.7175e-26 -7.79665e-24 -4.3939e-24 -4.98987e-25 -1.05311e-24 3.8567e-24 -1.80298e-24 1.05698e-24 -1.84578e-25
          5.09847e-24 1.03358e-23 0 -2.60641e-25 3.21244e-24 8.29564e-24 1.48402e-26 5.31538e-24 6.64419e-25 -4.7131e-28 -4.62702e-24 -1.4771e-24
          3.66052e-25 -6.88454e-25 2.4844e-28 -1.8853e-25 1.24136e-27 6.48989e-25 -6.82816e-25 -1.91104e-27 1.35593e-23 -1.82162e-26 1.53378e-24 3.60032e-24
          2.36331e-24 4.62764e-24 3.36426e-24 -4.93471e-24 -2.99068e-28 -2.52177e-24 -4.91055e-24 -8.88297e-24 -6.20966e-28 6.96081e-25 -2.50591e-25 1.36146e-27
          -5.8474e-26 -4.52402e-24 1.51184e-24 0 0 4.94936e-25 4.11614e-24 -4.94048e-25 4.7365e-24 0 2.83457e-24 0
          -7.70174e-25 7.81719e-25 1.25325e-27 1.14984e-25 -6.82574e-24 -1.48769e-28 -3.19231e-28 -2.96448e-28 4.47587e-24 -7.99203e-28 -1.33289e-24 -2.21551e-24
          6.14946e-28 1.91991e-24 -2.87109e-28 4.92659e-26 2.14801e-24 -1.13124e-23 0 -1.17687e-23 0 4.23184e-28 3.25616e-24 -4.03774e-24
          -1.90797e-24 4.89291e-28 1.40766e-24 0 4.12877e-24 0 7.21353e-25 2.27391e-24 5.38417e-24 1.22453e-25 -5.79888e-24 -5.39407e-24
          -2.34237e-24 1.92018e-25 6.12371e-26 -2.14948e-28 -1.86258e-24 -1.1189e-24 4.62979e-24 -2.26521e-24 2.53357e-24 -2.12843e-24 7.36232e-25 9.87245e-24
          -8.28101e-26 -4.34813e-24 1.04349e-23 5.85131e-24 -3.52222e-24 7.70243e-26 9.81252e-25 -6.74987e-28 1.10144e-24 -1.19993e-28 -4.17983e-24 9.06291e-25
          -1.93724e-24 3.52688e-26 -3.04338e-24 -1.39498e-25 -5.93135e-24 -5.33513e-24 1.01826e-23 2.88679e-25 3.77144e-24 1.15375e-24 -3.90404e-25 -9.06712e-25
          -1.11716e-24 6.74208e-25 0 -4.25161e-26 -1.44443e-24 4.98075e-24 -8.75527e-24 8.7546e-24 -6.18026e-24 1.55816e-27 0 0
          2.59141e-25 -8.9752e-28 1.46635e-24 -1.27216e-24 -1.33664e-24 1.23346e-24 -2.07184e-24 -9.45753e-25 -1.41966e-24 2.78379e-26 6.64632e-25 -4.04391e-24
          1.44119e-23 -2.74038e-25 -6.88054e-24 4.90778e-25 1.00338e-24 -2.86007e-28 -8.89824e-25 5.28768e-29 3.41761e-29 1.26573e-25 -3.09211e-24 5.43049e-25
          -1.3467e-25 1.10218e-23 -4.56175e-24 0 -2.90904e-25 -9.1121e-25 7.00319e-24 -8.07757e-25 0 -5.01614e-25 5.25929e-30 -4.07653e-25
          6.91882e-25 -1.38299e-24 -2.32207e-24 -3.72757e-25 -2.85039e-24 1.12597e-24 -3.12364e-23 0 3.12434e-23 -2.29222e-23 1.89431e-23 4.76611e-25
        </DataArray>
        <DataArray type="Float32" Name="velocity[2]" NumberOfComponents="1" format="ascii">
          -7.68222e-11 5.30698e-09 -3.72737e-09 -4.23668e-09 -3.11335e-09 -3.14148e-09 -2.85e-09 -2.52941e-09 -2.50949e-09 -2.91665e-09 -2.9891e-09 -2.78456e-09
          -2.335e-09 -1.89441e-09 -1.29381e-09 -1.55353e-09 2.20555e-08 -3.06024e-09 -6.03064e-09 -1.86108e-09 -1.75838e-09 -1.10941e-09 -1.78244e-09 -2.07561e-09
          -3.05323e-09 -3.18335e-09 -3.97432e-09 -2.66135e-09 -1.49444e-09 -1.73456e-09 -3.89797e-09 3.15645e-08 -8.6355e-10 -2.56062e-09 -3.96049e-09 -3.09859e-09
          -1.38342e-09 -1.90041e-09 -3.10524e-09 -4.13421e-09 -3.71441e-09 -6.89896e-09 -3.2094e-09 -1.98744e-09 -2.3404e-09 -2.61379e-09 3.36517e-08 2.72027e-10
          1.06072e-08 -6.66668e-09 -7.32911e-09 -5.8665e-09 -3.99195e-09 -3.81794e-09 -4.80908e-09 -3.23397e-09 -9.68161e-09 -2.43698e-09 -2.30145e-09 -3.07996e-09
          -1.11863e-08 1.74017e-09 -1.10348e-09 -3.2072e-08 -1.44279e-08 -1.99303e-08 -1.82849e-08 -1.31215e-08 -4.27169e-09 -5.5448e-09 -4.69021e-09 -1.54105e-08
          -1.08844e-09 -1.54106e-09 -3.39645e-09 -3.22509e-08 -4.0641e-08 -2.77291e-09 -5.6943e-08 -1.9032e-08 -4.11774e-08 -2.34778e-08 -2.88296e-08 -2.80857e-09
          -3.1747e-09 -4.2317e-09 -2.09828e-08 -8.69023e-10 -1.2652e-09 -3.67728e-09 -3.34335e-08 -3.66372e-08 -2.05855e-09 -2.11397e-08 -1.41614e-08 -6.38072e-08
          -1.89359e-08 -4.42366e-08 -2.57997e-09 -2.4034e-09 -4.58515e-09 -2.52842e-08 -7.52587e-10 -1.07783e-09 -3.8214e-09 -3.02122e-08 -3.35809e-08 -2.13071e-09
          -4.9762e-09 -6.48102e-09 -7.60946e-08 -9.74989e-09 -4.29296e-08 -2.55465e-09 -2.12679e-09 -4.62456e-09 -2.84576e-08 -9.69297e-10 -1.44377e-09 -4.30493e-09
          -2.70188e-08 -3.00374e-08 -2.01549e-09 -2.08667e-09 -4.44334e-09 -8.30198e-08 -7.60608e-09 -4.6211e-08 -1.8944e-09 -1.57174e-09 -5.69851e-09 -2.72504e-08
          -9.18466e-10 -1.3242e-09 -4.69122e-09 -2.27338e-08 -2.89615e-08 -3.65916e-09 -1.54422e-09 -3.29859e-09 -7.80868e-08 -5.30826e-09 -6.4348e-08 -1.6876e-09
          -1.33373e-09 -9.2587e-09 -2.35092e-08 -1.13431e-09 -1.26226e-09 -5.08087e-09 -1.65569e-08 -2.66815e-08 -4.80973e-09 -1.23731e-09 -2.68697e-09 -6.9849e-08
          -3.16752e-09 -7.87283e-08 -3.01706e-09 -1.44238e-09 -1.22284e-08 -2.02316e-08 -2.14014e-09 -1.32985e-09 -5.34415e-09 -1.29596e-08 -2.47664e-08 -5.43545e-09
          -6.83939e-10 -3.20425e-09 -6.1536e-08 -2.28061e-09 -7.55394e-08 -1.10026e-08 -2.61925e-09 -1.35905e-08 -1.63864e-08 -5.87118e-09 -2.33103e-09 -5.8137e-09
          -1.16094e-08 -2.42329e-08 -4.15412e-09 -7.17189e-10 -6.95407e-09 -4.76075e-08 -3.30605e-09 -7.14459e-08 -1.38186e-08 -4.97158e-09 -1.3029e-08 -1.03929e-08
          -1.01967e-08 -5.77399e-09 -6.28458e-09 -1.14368e-08 -2.59563e-08 -3.01893e-09 -1.80456e-09 -1.05138e-08 -4.05898e-08 -1.5926e-09 -7.81402e-08 -1.42155e-08
          -3.73945e-09 -7.60501e-09 -3.69692e-09 -8.16415e-09 -6.92694e-09 -5.56097e-09 -1.16538e-08 -2.34012e-08 -2.86834e-09 -3.08533e-09 -8.11189e-09 -4.26257e-08
          -1.09603e-09 -7.86681e-08 -1.87763e-08 -5.53936e-09 -4.8176e-09 -2.20547e-09 -7.52583e-09 -8.81151e-09 -4.7185e-09 -1.24521e-08 -1.82561e-08 -3.74317e-09
          -3.89193e-09 -9.1857e-09 -4.49949e-08 -1.33476e-09 -7.07705e-08 -2.19126e-08 -8.62522e-09 -5.18616e-09 -4.69217e-09 -1.04797e-08 -1.31799e-08 -3.7123e-09
          -1.19714e-08 -1.18596e-08 -2.66999e-09 -2.96197e-09 -1.12831e-08 -4.09464e-08 -3.08169e-09 -5.86828e-08 -2.33949e-08 -1.23014e-08 -3.56165e-09 -4.00768e-09
          -9.854e-09 -1.99406e-08 -2.78377e-09 -1.2457e-08 -8.64178e-09 -1.73862e-09 -2.37261e-09 -1.64499e-08 -3.03398e-08 -4.3046e-09 -4.77316e-08 -2.62077e-08
          -1.74604e-08 -3.22877e-09 -3.45784e-09 -6.60355e-09 -2.47434e-08 -2.2476e-09 -1.17384e-08 -6.78747e-09 -1.8046e-09 -1.6967e-09 -2.00835e-08 -2.00083e-08
          -4.26028e-09 -3.59312e-08 -2.74235e-08 -2.73955e-08 -3.33888e-09 -3.67096e-09 -7.70962e-09 -2.84657e-08 -2.48201e-09 -9.90512e-09 -4.71702e-09 -1.4126e-09
          -1.34335e-09 -2.10495e-08 -1.21918e-08 -3.91201e-09 -2.7219e-08 -2.07147e-08 -4.6304e-08 -3.38573e-09 -3.43512e-09 -9.44703e-09 -3.01691e-08 -3.13822e-09
          -7.79104e-09 -3.75862e-09 -1.61713e-09 -1.2991e-09 -1.99342e-08 -7.79201e-09 -3.70802e-09 -2.19554e-08 -1.0423e-08 -6.09691e-08 -3.72677e-09 -4.26809e-09
          -1.15895e-08 -3.1867e-08 -3.49964e-09 -5.14657e-09 -2.55057e-09 -1.79239e-09 -1.47589e-09 -1.56016e-08 -6.78101e-09 -4.05303e-09 -2.1173e-08 -6.65142e-09
          -6.42207e-08 -4.74367e-09 -6.4853e-09 -1.29865e-08 -3.41169e-08 -4.97092e-09 -2.52955e-09 -1.37184e-09 -1.26401e-09 -1.35775e-09 -8.99625e-09 -6.17901e-09
          -4.3356e-09 -2.28566e-08 -6.44351e-09 -5.76308e-08 -7.86454e-09 -1.12094e-08 -1.79935e-08 -3.61463e-08 -6.28137e-09 -7.84295e-10 -5.82604e-10 -4.32446e-10
          -4.33235e-10 -2.48908e-09 -2.65239e-09 -2.16452e-09 -1.3264e-08 -6.66001e-09 -3.35738e-08 -1.44027e-08 -1.26165e-08 -1.43936e-08 -2.00979e-08 -3.3719e-09
        </DataArray>
        <DataArray type="Float32" Name="z[0]" NumberOfComponents="1" format="ascii">
          0.150578 0.150579 0.15058 0.150582 0.150582 0.150583 0.150584 0.150585 0.150585 0.150586 0.150587 0.150588
          0.150589 0.150591 0.150596 0.150581 0.150582 0.150583 0.150585 0.150586 0.150587 0.150587 0.150588 0.150588
          0.150589 0.15059 0.150591 0.150593 0.150595 0.150599 0.150584 0.150585 0.150587 0.150588 0.150589 0.15059
          0.15059 0.150591 0.150592 0.150593 0.150593 0.150595 0.150596 0.150598 0.150602 0.150588 0.150589 0.15059
          0.150591 0.150592 0.150593 0.150594 0.150594 0.150595 0.150596 0.150597 0.150598 0.150599 0.150601 0.150605
          0.150591 0.150592 0.150593 0.150594 0.150595 0.150596 0.150597 0.150597 0.150598 0.150599 0.1506 0.150601
          0.150602 0.150604 0.150609 0.150594 0.150595 0.150596 0.150597 0.150598 0.150599 0.1506 0.1506 0.150601
          0.150602 0.150603 0.150604 0.150605 0.150607 0.150612 0.150597 0.150598 0.150599 0.150601 0.150601 0.150602