<?xml version="1.0"?>
<VTKFile type="UnstructuredGrid" version="0.1" byte_order="LittleEndian">
  <UnstructuredGrid>
    <Piece NumberOfCells="360" NumberOfPoints="800">
      <CellData Scalars="pressure[0]">
        <DataArray type="Float32" Name="pressure[0]" NumberOfComponents="1" format="ascii">
          2.09949e+07 2.10095e+07 2.15033e+07 2.20217e+07 2.23821e+07 2.28089e+07 2.29475e+07 2.29981e+07 2.30602e+07 2.31296e+07 2.33411e+07 2.369e+07
          2.39488e+07 2.46042e+07 2.53608e+07 2.10389e+07 2.10535e+07 2.15996e+07 2.21423e+07 2.25395e+07 2.29836e+07 2.30863e+07 2.31262e+07 2.31907e+07
          2.32712e+07 2.35703e+07 2.3925e+07 2.4132e+07 2.47996e+07 2.55277e+07 2.10831e+07 2.10976e+07 2.16652e+07 2.22814e+07 2.26278e+07 2.30408e+07
          2.31655e+07 2.32254e+07 2.33124e+07 2.3428e+07 2.38385e+07 2.42471e+07 2.44437e+07 2.50483e+07 2.57398e+07 2.11279e+07 2.11433e+07 2.15242e+07
          2.24138e+07 2.27405e+07 2.31261e+07 2.32383e+07 2.32924e+07 2.34369e+07 2.36335e+07 2.41898e+07 2.46458e+07 2.4828e+07 2.53451e+07 2.60046e+07
          2.12289e+07 2.12534e+07 1.97868e+07 2.25133e+07 2.29146e+07 2.33064e+07 2.33758e+07 2.34126e+07 2.36702e+07 2.40723e+07 2.461e+07 2.50234e+07
          2.52066e+07 2.56808e+07 2.62645e+07 2.14271e+07 2.14701e+07 2.19851e+07 2.29897e+07 2.3281e+07 2.355e+07 2.36103e+07 2.36905e+07 2.40437e+07
          2.45675e+07 2.50949e+07 2.53641e+07 2.55599e+07 2.60196e+07 2.6556e+07 2.16811e+07 2.17309e+07 2.26244e+07 2.34811e+07 2.36894e+07 2.4178e+07
          2.42574e+07 2.43401e+07 2.4556e+07 2.51043e+07 2.55547e+07 2.56649e+07 2.58504e+07 2.6386e+07 2.6962e+07 2.20463e+07 2.21003e+07 2.31816e+07
          2.3996e+07 2.42271e+07 2.4741e+07 2.48091e+07 2.48781e+07 2.50788e+07 2.55391e+07 2.58535e+07 2.59342e+07 2.61822e+07 2.67633e+07 2.75229e+07
          2.25788e+07 2.26428e+07 2.36657e+07 2.45207e+07 2.4808e+07 2.52226e+07 2.53599e+07 2.54979e+07 2.56789e+07 2.5998e+07 2.61625e+07 2.61937e+07
          2.64487e+07 2.71886e+07 2.80823e+07 2.32238e+07 2.33316e+07 2.40055e+07 2.47566e+07 2.53087e+07 2.5646e+07 2.59431e+07 2.62274e+07 2.63295e+07
          2.64632e+07 2.65385e+07 2.65668e+07 2.68338e+07 2.76154e+07 2.84144e+07 2.41639e+07 2.43051e+07 2.46045e+07 2.51996e+07 2.57145e+07 2.59609e+07
          2.64184e+07 2.68282e+07 2.69151e+07 2.69203e+07 2.69234e+07 2.69599e+07 2.71819e+07 2.79641e+07 2.86597e+07 2.48256e+07 2.49094e+07 2.50782e+07
          2.55592e+07 2.60773e+07 2.62746e+07 2.68947e+07 2.73975e+07 2.74233e+07 2.73725e+07 2.73261e+07 2.73432e+07 2.75571e+07 2.8311e+07 2.9372e+07
          2.52851e+07 2.5351e+07 2.54859e+07 2.58076e+07 2.67343e+07 2.68502e+07 2.74931e+07 2.80478e+07 2.81339e+07 2.78734e+07 2.78309e+07 2.82115e+07
          2.88464e+07 2.98601e+07 3.011e+07 2.62445e+07 2.62955e+07 2.62085e+07 2.65482e+07 2.7691e+07 2.7795e+07 2.8312e+07 2.8716e+07 2.87846e+07
          2.88393e+07 2.88598e+07 2.94174e+07 3.0187e+07 3.07753e+07 3.05439e+07 2.70557e+07 2.7056e+07 2.71339e+07 2.80254e+07 2.86026e+07 2.86692e+07
          2.90051e+07 2.92489e+07 2.93011e+07 2.93822e+07 2.95404e+07 3.03811e+07 3.10363e+07 3.12202e+07 3.10636e+07 2.77608e+07 2.77879e+07 2.7951e+07
          2.89011e+07 2.91424e+07 2.91972e+07 2.94334e+07 2.95879e+07 2.96385e+07 2.97159e+07 3.00294e+07 3.08188e+07 3.14058e+07 3.17303e+07 3.15547e+07
          2.84717e+07 2.85154e+07 2.86355e+07 2.94224e+07 2.95701e+07 2.96082e+07 2.97263e+07 2.98308e+07 2.98795e+07 2.99444e+07 3.03634e+07 3.12976e+07
          3.19247e+07 3.2239e+07 3.2005e+07 2.90498e+07 2.91078e+07 2.9448e+07 2.97339e+07 2.98615e+07 2.99054e+07 2.99969e+07 3.00744e+07 3.01253e+07
          3.01841e+07 3.06989e+07 3.16832e+07 3.2322e+07 3.25779e+07 3.24545e+07 2.93605e+07 2.9426e+07 2.96381e+07 2.99513e+07 3.01146e+07 3.0162e+07
          3.02422e+07 3.03103e+07 3.03567e+07 3.04131e+07 3.09785e+07 3.20644e+07 3.27174e+07 3.29072e+07 3.30786e+07 2.96105e+07 2.96689e+07 2.98628e+07
          3.01753e+07 3.03357e+07 3.03837e+07 3.04616e+07 3.05262e+07 3.05729e+07 3.0636e+07 3.11952e+07 3.23905e+07 3.31073e+07 3.32549e+07 3.36726e+07
          2.9821e+07 2.98873e+07 3.00429e+07 3.03328e+07 3.05322e+07 3.05855e+07 3.06698e+07 3.07387e+07 3.08022e+07 3.08828e+07 3.16739e+07 3.2951e+07
          3.34687e+07 3.36248e+07 3.41361e+07 3.00227e+07 3.00917e+07 3.02308e+07 3.0515e+07 3.07187e+07 3.07777e+07 3.08764e+07 3.09561e+07 3.10395e+07
          3.11328e+07 3.22005e+07 3.35259e+07 3.38433e+07 3.40346e+07 3.4588e+07 3.02068e+07 3.02698e+07 3.04377e+07 3.07381e+07 3.09051e+07 3.09735e+07
          3.10906e+07 3.11837e+07 3.12925e+07 3.14098e+07 3.26459e+07 3.39993e+07 3.42703e+07 3.44853e+07 3.49115e+07 3.0375e+07 3.0435e+07 3.05826e+07
          3.08849e+07 3.10998e+07 3.11699e+07 3.13023e+07 3.14112e+07 3.1545e+07 3.17045e+07 3.31382e+07 3.44105e+07 3.47114e+07 3.49053e+07 3.51974e+07
        </DataArray>
        <DataArray type="Float32" Name="pressure[1]" NumberOfComponents="1" format="ascii">
          2.09949e+07 2.10095e+07 2.15033e+07 2.20217e+07 2.23821e+07 2.28089e+07 2.29475e+07 2.29981e+07 2.30602e+07 2.31296e+07 2.33411e+07 2.369e+07
          2.39488e+07 2.46042e+07 2.53608e+07 2.10389e+07 2.10535e+07 2.15996e+07 2.21423e+07 2.25395e+07 2.29836e+07 2.30863e+07 2.31262e+07 2.31907e+07
          2.32712e+07 2.35703e+07 2.3925e+07 2.4132e+07 2.47996e+07 2.55277e+07 2.10831e+07 2.10976e+07 2.16652e+07 2.22814e+07 2.26278e+07 2.30408e+07
          2.31655e+07 2.32254e+07 2.33124e+07 2.3428e+07 2.38385e+07 2.42471e+07 2.44437e+07 2.50483e+07 2.57398e+07 2.11279e+07 2.11433e+07 2.15242e+07
          2.24138e+07 2.27405e+07 2.31261e+07 2.32383e+07 2.32924e+07 2.34369e+07 2.36335e+07 2.41898e+07 2.46458e+07 2.4828e+07 2.53451e+07 2.60046e+07
          2.12289e+07 2.12534e+07 1.97868e+07 2.25133e+07 2.29146e+07 2.33064e+07 2.33758e+07 2.34126e+07 2.36702e+07 2.40723e+07 2.461e+07 2.50234e+07
          2.52066e+07 2.56808e+07 2.62645e+07 2.14271e+07 2.14701e+07 2.19851e+07 2.29897e+07 2.3281e+07 2.355e+07 2.36103e+07 2.36905e+07 2.40437e+07
          2.45675e+07 2.50949e+07 2.53641e+07 2.55599e+07 2.60196e+07 2.6556e+07 2.16811e+07 2.17309e+07 2.26244e+07 2.34811e+07 2.36894e+07 2.4178e+07
          2.42574e+07 2.43401e+07 2.4556e+07 2.51043e+07 2.55547e+07 2.56649e+07 2.58504e+07 2.6386e+07 2.6962e+07 2.20463e+07 2.21003e+07 2.31816e+07
          2.3996e+07 2.42271e+07 2.4741e+07 2.48091e+07 2.48781e+07 2.50788e+07 2.55391e+07 2.58535e+07 2.59342e+07 2.61822e+07 2.67633e+07 2.75229e+07
          2.25788e+07 2.26428e+07 2.36657e+07 2.45207e+07 2.4808e+07 2.52226e+07 2.53599e+07 2.54979e+07 2.56789e+07 2.5998e+07 2.61625e+07 2.61937e+07
          2.64487e+07 2.71886e+07 2.80823e+07 2.32238e+07 2.33316e+07 2.40055e+07 2.47566e+07 2.53087e+07 2.5646e+07 2.59431e+07 2.62274e+07 2.63295e+07
          2.64632e+07 2.65385e+07 2.65668e+07 2.68338e+07 2.76154e+07 2.84144e+07 2.41639e+07 2.43051e+07 2.46045e+07 2.51996e+07 2.57145e+07 2.59609e+07
          2.64184e+07 2.68282e+07 2.69151e+07 2.69203e+07 2.69234e+07 2.69599e+07 2.71819e+07 2.79641e+07 2.86597e+07 2.48256e+07 2.49094e+07 2.50782e+07
          2.55592e+07 2.60773e+07 2.62746e+07 2.68947e+07 2.73975e+07 2.74233e+07 2.73725e+07 2.73261e+07 2.73432e+07 2.75571e+07 2.8311e+07 2.9372e+07
          2.52851e+07 2.5351e+07 2.54859e+07 2.58076e+07 2.67343e+07 2.68502e+07 2.74931e+07 2.80478e+07 2.81339e+07 2.78734e+07 2.78309e+07 2.82115e+07
          2.88464e+07 2.98601e+07 3.011e+07 2.62445e+07 2.62955e+07 2.62085e+07 2.65482e+07 2.7691e+07 2.7795e+07 2.8312e+07 2.8716e+07 2.87846e+07
          2.88393e+07 2.88598e+07 2.94174e+07 3.0187e+07 3.07753e+07 3.05439e+07 2.70557e+07 2.7056e+07 2.71339e+07 2.80254e+07 2.86026e+07 2.86692e+07
          2.90051e+07 2.92489e+07 2.93011e+07 2.93822e+07 2.95404e+07 3.03811e+07 3.10363e+07 3.12202e+07 3.10636e+07 2.77608e+07 2.77879e+07 2.7951e+07
          2.89011e+07 2.91424e+07 2.91972e+07 2.94334e+07 2.95879e+07 2.96385e+07 2.97159e+07 3.00294e+07 3.08188e+07 3.14058e+07 3.17303e+07 3.15547e+07
          2.84717e+07 2.85154e+07 2.86355e+07 2.94224e+07 2.95701e+07 2.96082e+07 2.97263e+07 2.98308e+07 2.98795e+07 2.99444e+07 3.03634e+07 3.12976e+07
          3.19247e+07 3.2239e+07 3.2005e+07 2.90498e+07 2.91078e+07 2.9448e+07 2.97339e+07 2.98615e+07 2.99054e+07 2.99969e+07 3.00744e+07 3.01253e+07
          3.01841e+07 3.06989e+07 3.16832e+07 3.2322e+07 3.25779e+07 3.24545e+07 2.93605e+07 2.9426e+07 2.96381e+07 2.99513e+07 3.01146e+07 3.0162e+07
          3.02422e+07 3.03103e+07 3.03567e+07 3.04131e+07 3.09785e+07 3.20644e+07 3.27174e+07 3.29072e+07 3.30786e+07 2.96105e+07 2.96689e+07 2.98628e+07
          3.01753e+07 3.03357e+07 3.03837e+07 3.04616e+07 3.05262e+07 3.05729e+07 3.0636e+07 3.11952e+07 3.23905e+07 3.31073e+07 3.32549e+07 3.36726e+07
          2.9821e+07 2.98873e+07 3.00429e+07 3.03328e+07 3.05322e+07 3.05855e+07 3.06698e+07 3.07387e+07 3.08022e+07 3.08828e+07 3.16739e+07 3.2951e+07
          3.34687e+07 3.36248e+07 3.41361e+07 3.00227e+07 3.00917e+07 3.02308e+07 3.0515e+07 3.07187e+07 3.07777e+07 3.08764e+07 3.09561e+07 3.10395e+07
          3.11328e+07 3.22005e+07 3.35259e+07 3.38433e+07 3.40346e+07 3.4588e+07 3.02068e+07 3.02698e+07 3.04377e+07 3.07381e+07 3.09051e+07 3.09735e+07
          3.10906e+07 3.11837e+07 3.12925e+07 3.14098e+07 3.26459e+07 3.39993e+07 3.42703e+07 3.44853e+07 3.49115e+07 3.0375e+07 3.0435e+07 3.05826e+07
          3.08849e+07 3.10998e+07 3.11699e+07 3.13023e+07 3.14112e+07 3.1545e+07 3.17045e+07 3.31382e+07 3.44105e+07 3.47114e+07 3.49053e+07 3.51974e+07
        </DataArray>
        <DataArray type="Float32" Name="pressure[2]" NumberOfComponents="1" format="ascii">
          2.09949e+07 2.10095e+07 2.15033e+07 2.20217e+07 2.23821e+07 2.28089e+07 2.29475e+07 2.29981e+07 2.30602e+07 2.31296e+07 2.33411e+07 2.369e+07
          2.39488e+07 2.46042e+07 2.53608e+07 2.10389e+07 2.10535e+07 2.15996e+07 2.21423e+07 2.25395e+07 2.29836e+07 2.30863e+07 2.31262e+07 2.31907e+07
          2.32712e+07 2.35703e+07 2.3925e+07 2.4132e+07 2.47996e+07 2.55277e+07 2.10831e+07 2.10976e+07 2.16652e+07 2.22814e+07 2.26278e+07 2.30408e+07
          2.31655e+07 2.32254e+07 2.33124e+07 2.3428e+07 2.38385e+07 2.42471e+07 2.44437e+07 2.50483e+07 2.57398e+07 2.11279e+07 2.11433e+07 2.15242e+07
          2.24138e+07 2.27405e+07 2.31261e+07 2.32383e+07 2.32924e+07 2.34369e+07 2.36335e+07 2.41898e+07 2.46458e+07 2.4828e+07 2.53451e+07 2.60046e+07
          2.12289e+07 2.12534e+07 1.97868e+07 2.25133e+07 2.29146e+07 2.33064e+07 2.33758e+07 2.34126e+07 2.36702e+07 2.40723e+07 2.461e+07 2.50234e+07
          2.52066e+07 2.56808e+07 2.62645e+07 2.14271e+07 2.14701e+07 2.19851e+07 2.29897e+07 2.3281e+07 2.355e+07 2.36103e+07 2.36905e+07 2.40437e+07
          2.45675e+07 2.50949e+07 2.53641e+07 2.55599e+07 2.60196e+07 2.6556e+07 2.16811e+07 2.17309e+07 2.26244e+07 2.34811e+07 2.36894e+07 2.4178e+07
          2.42574e+07 2.43401e+07 2.4556e+07 2.51043e+07 2.55547e+07 2.56649e+07 2.58504e+07 2.6386e+07 2.6962e+07 2.20463e+07 2.21003e+07 2.31816e+07
          2.3996e+07 2.42271e+07 2.4741e+07 2.48091e+07 2.48781e+07 2.50788e+07 2.55391e+07 2.58535e+07 2.59342e+07 2.61822e+07 2.67633e+07 2.75229e+07
          2.25788e+07 2.26428e+07 2.36657e+07 2.45207e+07 2.4808e+07 2.52226e+07 2.53599e+07 2.54979e+07 2.56789e+07 2.5998e+07 2.61625e+07 2.61937e+07
          2.64487e+07 2.71886e+07 2.80823e+07 2.32238e+07 2.33316e+07 2.40055e+07 2.47566e+07 2.53087e+07 2.5646e+07 2.59431e+07 2.62274e+07 2.63295e+07
          2.64632e+07 2.65385e+07 2.65668e+07 2.68338e+07 2.76154e+07 2.84144e+07 2.41639e+07 2.43051e+07 2.46045e+07 2.51996e+07 2.57145e+07 2.59609e+07
          2.64184e+07 2.68282e+07 2.69151e+07 2.69203e+07 2.69234e+07 2.69599e+07 2.71819e+07 2.79641e+07 2.86597e+07 2.48256e+07 2.49094e+07 2.50782e+07
          2.55592e+07 2.60773e+07 2.62746e+07 2.68947e+07 2.73975e+07 2.74233e+07 2.73725e+07 2.73261e+07 2.73432e+07 2.75571e+07 2.8311e+07 2.9372e+07
          2.52851e+07 2.5351e+07 2.54859e+07 2.58076e+07 2.67343e+07 2.68502e+07 2.74931e+07 2.80478e+07 2.81339e+07 2.78734e+07 2.78309e+07 2.82115e+07
          2.88464e+07 2.98601e+07 3.011e+07 2.62445e+07 2.62955e+07 2.62085e+07 2.65482e+07 2.7691e+07 2.7795e+07 2.8312e+07 2.8716e+07 2.87846e+07
          2.88393e+07 2.88598e+07 2.94174e+07 3.0187e+07 3.07753e+07 3.05439e+07 2.70557e+07 2.7056e+07 2.71339e+07 2.80254e+07 2.86026e+07 2.86692e+07
          2.90051e+07 2.92489e+07 2.93011e+07 2.93822e+07 2.95404e+07 3.03811e+07 3.10363e+07 3.12202e+07 3.10636e+07 2.77608e+07 2.77879e+07 2.7951e+07
          2.89011e+07 2.91424e+07 2.91972e+07 2.94334e+07 2.95879e+07 2.96385e+07 2.97159e+07 3.00294e+07 3.08188e+07 3.14058e+07 3.17303e+07 3.15547e+07
          2.84717e+07 2.85154e+07 2.86355e+07 2.94224e+07 2.95701e+07 2.96082e+07 2.97263e+07 2.98308e+07 2.98795e+07 2.99444e+07 3.03634e+07 3.12976e+07
          3.19247e+07 3.2239e+07 3.2005e+07 2.90498e+07 2.91078e+07 2.9448e+07 2.97339e+07 2.98615e+07 2.99054e+07 2.99969e+07 3.00744e+07 3.01253e+07
          3.01841e+07 3.06989e+07 3.16832e+07 3.2322e+07 3.25779e+07 3.24545e+07 2.93605e+07 2.9426e+07 2.96381e+07 2.99513e+07 3.01146e+07 3.0162e+07
          3.02422e+07 3.03103e+07 3.03567e+07 3.04131e+07 3.09785e+07 3.20644e+07 3.27174e+07 3.29072e+07 3.30786e+07 2.96105e+07 2.96689e+07 2.98628e+07
          3.01753e+07 3.03357e+07 3.03837e+07 3.04616e+07 3.05262e+07 3.05729e+07 3.0636e+07 3.11952e+07 3.23905e+07 3.31073e+07 3.32549e+07 3.36726e+07
          2.9821e+07 2.98873e+07 3.00429e+07 3.03328e+07 3.05322e+07 3.05855e+07 3.06698e+07 3.07387e+07 3.08022e+07 3.08828e+07 3.16739e+07 3.2951e+07
          3.34687e+07 3.36248e+07 3.41361e+07 3.00227e+07 3.00917e+07 3.02308e+07 3.0515e+07 3.07187e+07 3.07777e+07 3.08764e+07 3.09561e+07 3.10395e+07
          3.11328e+07 3.22005e+07 3.35259e+07 3.38433e+07 3.40346e+07 3.4588e+07 3.02068e+07 3.02698e+07 3.04377e+07 3.07381e+07 3.09051e+07 3.09735e+07
          3.10906e+07 3.11837e+07 3.12925e+07 3.14098e+07 3.26459e+07 3.39993e+07 3.42703e+07 3.44853e+07 3.49115e+07 3.0375e+07 3.0435e+07 3.05826e+07
          3.08849e+07 3.10998e+07 3.11699e+07 3.13023e+07 3.14112e+07 3.1545e+07 3.17045e+07 3.31382e+07 3.44105e+07 3.47114e+07 3.49053e+07 3.51974e+07
        </DataArray>
        <DataArray type="Float32" Name="velocity[0]" NumberOfComponents="1" format="ascii">
          -5.51795e-11 2.85382e-08 2.87664e-10 1.18831e-09 -1.75755e-10 -1.14442e-09 3.35356e-10 1.71932e-09 2.78333e-09 -1.35502e-10 -1.94247e-09 -2.81034e-09
          -1.92682e-09 -5.96273e-10 -2.69988e-09 -1.60022e-09 8.28082e-08 6.36667e-10 -3.00249e-09 2.8042e-10 2.34389e-09 1.01378e-08 7.16916e-09 6.52596e-09
          -1.73504e-09 -4.03339e-09 -1.18643e-08 -7.32187e-09 -1.84332e-09 -7.16058e-09 -1.09655e-08 1.26919e-07 1.26471e-09 2.07007e-08 9.10312e-10 6.8286e-09
          1.88687e-08 1.51498e-08 5.14913e-09 -5.18049e-09 -4.88232e-09 -2.97276e-08 -1.04006e-08 -3.93536e-09 -1.07236e-08 -1.96003e-08 1.51292e-07 6.50415e-09
          9.28915e-08 -5.98197e-10 -1.39379e-09 9.75727e-09 1.4168e-08 -1.79082e-09 -1.27676e-08 -6.46243e-09 -5.21141e-08 -7.40072e-09 -5.72857e-09 -1.4605e-08
          -9.19844e-08 -3.82305e-08 -2.21575e-10 -9.48471e-08 -1.19517e-08 -3.59631e-08 -2.75668e-08 -1.19637e-08 -6.96535e-09 -1.38721e-08 -9.219e-09 -8.97152e-08
          -3.77545e-09 -5.25175e-09 -1.79615e-08 -1.72732e-07 -2.12692e-07 -7.07215e-09 -2.2739e-07 -2.77574e-08 -1.09325e-07 -6.29906e-08 -8.62605e-08 -8.62746e-09
          -7.06202e-09 -1.43083e-08 -1.31465e-07 -2.26155e-09 -4.18893e-09 -2.0185e-08 -1.74571e-07 -1.86149e-07 -2.52506e-09 -8.56454e-08 -3.84302e-08 -1.75598e-07
          -5.91786e-08 -1.72204e-07 -9.07965e-09 -3.74418e-09 -1.78155e-08 -1.58983e-07 -1.93956e-09 -4.09597e-09 -2.17036e-08 -1.59592e-07 -1.72482e-07 -2.8866e-09
          -2.84184e-08 -4.162e-08 -2.00179e-07 -3.34572e-08 -2.41836e-07 -7.51707e-09 -2.84821e-09 -1.96716e-08 -1.75651e-07 -1.59326e-09 -4.16732e-09 -2.34149e-08
          -1.43418e-07 -1.56092e-07 -3.04661e-09 -8.05731e-09 -3.60064e-08 -2.11609e-07 -1.22386e-08 -3.13623e-07 -5.91416e-09 -3.10466e-09 -3.23093e-08 -1.67457e-07
          -1.52127e-09 -3.71989e-09 -2.56843e-08 -1.13852e-07 -1.40404e-07 -9.46314e-09 -2.12754e-09 -2.91705e-08 -2.17927e-07 -4.16098e-09 -3.86389e-07 -5.58185e-09
          -3.65661e-09 -5.45357e-08 -1.38917e-07 -2.35375e-09 -3.0648e-09 -2.79561e-08 -8.06543e-08 -1.25963e-07 -1.81118e-08 -1.92299e-09 -2.56119e-08 -2.23217e-07
          -1.426e-09 -4.43658e-07 -1.01526e-08 -5.2166e-09 -7.01172e-08 -1.06885e-07 -5.28604e-09 -3.283e-09 -3.00198e-08 -5.97758e-08 -1.09849e-07 -2.29343e-08
          -7.93064e-10 -2.03223e-08 -2.4063e-07 -1.19707e-09 -4.88263e-07 -1.98162e-08 -9.13259e-09 -7.7369e-08 -5.84939e-08 -1.35066e-08 -7.06956e-09 -3.15724e-08
          -4.48392e-08 -9.11991e-08 -3.00096e-08 -3.02392e-09 -1.68104e-08 -2.37112e-07 -1.77023e-09 -5.23781e-07 -4.85009e-08 -1.17955e-08 -5.71518e-08 -1.82654e-08
          -2.81409e-08 -1.45375e-08 -3.22601e-08 -3.85006e-08 -8.50442e-08 -2.74301e-08 -5.65298e-09 -2.11527e-08 -2.18233e-07 -1.84823e-09 -5.12154e-07 -8.68102e-08
          -1.60472e-08 -2.53601e-08 -7.34016e-09 -3.44177e-08 -2.64441e-08 -3.09746e-08 -4.46463e-08 -7.87855e-08 -1.66624e-08 -4.58857e-09 -2.79562e-08 -2.1563e-07
          -1.32137e-09 -4.70581e-07 -1.05224e-07 -2.43307e-08 -1.52063e-08 -3.89149e-09 -3.14832e-08 -4.13494e-08 -2.76475e-08 -5.40555e-08 -5.9586e-08 -1.1726e-08
          -3.62745e-09 -3.42829e-08 -2.12945e-07 -1.65593e-09 -4.01537e-07 -1.10312e-07 -3.34365e-08 -8.99424e-09 -5.15181e-09 -3.54938e-08 -6.0982e-08 -2.32474e-08
          -5.79077e-08 -4.49614e-08 -7.70319e-09 -4.93718e-09 -4.89425e-08 -1.86719e-07 -3.17567e-09 -3.17785e-07 -1.11155e-07 -5.18914e-08 -3.66871e-09 -5.04017e-09
          -2.92192e-08 -9.07297e-08 -1.84637e-08 -5.76109e-08 -3.59634e-08 -2.77352e-09 -3.76342e-09 -7.32336e-08 -1.35321e-07 -4.83684e-09 -2.41588e-07 -1.19539e-07
          -7.84317e-08 -2.59276e-09 -3.39877e-09 -1.89977e-08 -1.18769e-07 -1.4423e-08 -5.22791e-08 -2.58679e-08 -1.47687e-09 -1.41425e-09 -9.08893e-08 -8.63486e-08
          -5.09458e-09 -1.71642e-07 -1.18977e-07 -1.22547e-07 -1.50388e-09 -2.79854e-09 -2.48906e-08 -1.35925e-07 -1.26429e-08 -4.35981e-08 -1.75077e-08 -1.44693e-09
          -6.50572e-10 -9.71514e-08 -4.9259e-08 -4.25892e-09 -1.25471e-07 -7.66866e-08 -2.11142e-07 -2.62337e-09 -3.98906e-09 -3.69937e-08 -1.44321e-07 -1.36305e-08
          -3.34256e-08 -1.18038e-08 -1.30322e-09 -1.84441e-10 -9.06153e-08 -2.58262e-08 -3.65654e-09 -9.8584e-08 -3.19707e-08 -2.91897e-07 -4.11357e-09 -7.35389e-09
          -4.49582e-08 -1.50979e-07 -1.5688e-08 -2.10708e-08 -6.0413e-09 -2.02871e-09 -7.9572e-10 -6.70571e-08 -1.75634e-08 -3.56235e-09 -9.24938e-08 -1.72801e-08
          -3.07891e-07 -3.74624e-09 -1.40997e-08 -4.92302e-08 -1.57746e-07 -1.94929e-08 -9.85769e-09 -2.42598e-09 -9.17477e-10 -5.29088e-10 -3.34469e-08 -1.30765e-08
          -2.91225e-09 -9.70028e-08 -1.38785e-08 -2.64841e-07 -5.19323e-09 -2.42954e-08 -6.47102e-08 -1.64504e-07 -2.54806e-08 -2.61625e-09 -5.48567e-10 1.95215e-10
          6.74297e-11 -7.8606e-09 -4.98199e-09 -1.06354e-09 -4.93021e-08 -6.4547e-09 -1.14406e-07 -3.42622e-09 -1.47393e-08 -3.86813e-08 -8.45866e-08 -1.43132e-08
        </DataArray>
        <DataArray type="Float32" Name="velocity[1]" NumberOfComponents="1" format="ascii">
          8.57555e-27 4.49917e-24 6.00362e-26 1.84677e-25 2.73144e-26 0 -5.21184e-26 -2.37657e-25 3.90219e-26 5.75094e-24 -3.71977e-24 3.72096e-26
          2.42176e-24 -9.64288e-25 4.19597e-25 2.31542e-25 3.94594e-24 5.4483e-26 -8.35977e-25 -1.53582e-25 7.11919e-24 1.33517e-24 4.64574e-25 -6.75069e-24
          -1.28168e-25 0 -3.58898e-26 3.82636e-26 1.37201e-26 2.73654e-25 1.22393e-24 -6.041e-24 -1.38069e-24 4.51974e-24 -1.54512e-25 0
          6.44185e-26 -6.97046e-25 -3.63063e-25 0 7.14512e-24 -1.12595e-23 0 1.12047e-24 -2.80157e-25 2.52945e-25 1.05325e-23 -1.40476e-24
          -8.63701e-24 3.72668e-25 8.82819e-24 -2.20489e-23 2.41636e-23 -4.30892e-24 1.17064e-24 3.64768e-24 -4.69767e-24 3.06785e-24 -1.29288e-24 9.69514e-25
          -8.98131e-26 -6.07712e-23 5.53168e-24 9.62575e-24 -3.27883e-25 -4.30446e-24 8.87074e-26 -8.4051e-26 -2.3534e-25 -7.02046e-24 4.46174e-24 -8.33891e-24
          -6.5934e-29 1.28792e-25 -1.49496e-24 -1.2502e-25 6.54439e-24 -5.56959e-25 6.91043e-24 1.41376e-25 -7.45767e-24 0 -1.07621e-25 -2.40031e-25
          3.31337e-25 -4.98189e-25 6.10704e-24 -1.36825e-24 8.10766e-25 1.49462e-24 -9.67176e-25 1.06415e-24 0 6.95528e-24 8.14487e-25 -9.99193e-24
          -1.52287e-26 -6.70613e-26 -3.06306e-24 1.18451e-27 -1.24939e-28 -5.55306e-28 2.76247e-26 -1.03774e-28 -1.64202e-24 -1.83538e-25 1.26885e-23 1.266e-24
          4.23518e-24 -5.55471e-26 1.43487e-23 1.38411e-26 5.74302e-27 2.88e-25 -1.76987e-26 -3.31097e-24 -1.31002e-23 -1.31128e-28 -3.4392e-25 1.90798e-24
          -1.50575e-24 -8.97823e-24 -1.59185e-26 -1.34846e-24 -6.40579e-25 3.48341e-24 0 0 -2.02159e-25 6.18294e-29 6.90928e-25 3.81026e-24
          -2.72021e-28 5.84514e-26 -1.82745e-28 -1.04856e-23 1.4877e-24 1.75726e-24 -6.88525e-26 -3.15969e-24 3.60125e-24 -6.65791e-24 5.91838e-24 2.74716e-25
          -6.35476e-26 -2.20117e-25 3.46382e-24 -7.80123e-25 0 -2.08366e-24 3.76595e-24 1.50571e-25 3.15699e-25 -2.14848e-25 2.49144e-24 6.50595e-28
          -4.20079e-24 5.97502e-24 6.56479e-25 1.78994e-25 -2.52913e-25 8.07705e-24 1.70437e-24 -2.87248e-25 1.43624e-25 -3.96354e-24 2.83152e-24 -4.33706e-25
          8.50265e-26 -3.05317e-24 -1.96441e-23 3.30401e-26 3.95112e-24 -3.33898e-24 -4.29744e-25 1.576e-24 2.94636e-24 -1.77109e-24 1.00147e-24 -9.8199e-26
          3.00449e-24 7.82591e-24 0 -3.90291e-25 1.50094e-25 2.44535e-24 5.55755e-26 1.57662e-24 -3.61251e-24 -1.39767e-28 -2.65041e-24 -8.29785e-25
          1.39257e-24 -8.05219e-25 1.49917e-28 -2.65529e-26 7.54198e-28 7.86453e-25 -3.60285e-26 -2.33553e-28 1.63648e-23 -4.39755e-26 -3.37631e-24 5.78892e-24
          -3.19869e-25 2.65091e-24 2.23581e-24 -4.42799e-24 -1.60884e-28 -2.30284e-24 -2.97803e-24 -5.37518e-24 -3.60042e-28 4.48417e-25 5.32579e-25 1.18161e-27
          -3.79682e-26 -7.63504e-24 2.02459e-24 0 0 3.10963e-25 3.67385e-24 -4.98726e-25 4.29661e-24 0 1.49123e-24 0
          -2.99049e-25 4.50471e-25 9.13756e-28 8.99631e-26 -7.64885e-24 -3.29353e-28 -2.67194e-28 -4.39578e-28 4.03245e-24 -6.81165e-28 -1.18649e-24 -1.99431e-24
          4.17774e-28 7.81283e-25 -2.09927e-29 -1.69214e-25 1.82746e-24 -9.8939e-24 0 -1.0174e-23 0 4.31227e-28 2.95446e-24 -3.65558e-24
          -1.63734e-24 3.95336e-28 1.25077e-24 0 3.10297e-24 0 4.68559e-25 1.60273e-24 4.81281e-24 1.12027e-25 -6.47418e-24 -5.50691e-24
          -2.06092e-24 1.74592e-25 4.88325e-26 -1.90308e-28 -1.66963e-24 -9.90742e-25 3.73018e-24 -1.83967e-24 2.02212e-24 -1.66693e-24 7.96157e-25 8.30627e-24
          -7.19793e-26 -4.39562e-24 1.00093e-23 5.23492e-24 -3.14803e-24 6.89188e-26 8.67452e-25 -5.41961e-28 9.74119e-25 -1.26435e-28 -3.3593e-24 7.25774e-25
          -1.54245e-24 3.53858e-25 -2.57109e-24 -1.15915e-25 -5.56028e-24 -5.04374e-24 8.97556e-24 2.56216e-25 3.36513e-24 1.01312e-24 -3.40948e-25 -8.04017e-25
          -8.96239e-25 5.4021e-25 0 -3.33057e-26 -1.19261e-24 4.10377e-24 -7.21728e-24 7.21682e-24 -5.36076e-24 1.30733e-27 0 0
          2.24696e-25 -7.22068e-28 1.29388e-24 -1.02384e-24 -1.07316e-24 9.92497e-25 -1.66719e-24 -9.6352e-25 -1.25807e-24 2.11682e-26 4.52234e-25 -3.48773e-24
          1.26867e-23 -2.42578e-25 -6.11129e-24 4.38806e-25 8.84358e-25 -2.43083e-28 -7.18842e-25 5.56091e-29 5.12896e-29 1.03271e-25 -2.75472e-24 4.83619e-25
          -1.22027e-25 9.51479e-24 -3.96775e-24 0 -2.5786e-25 -8.05119e-25 6.22762e-24 -7.26564e-25 0 -4.06585e-25 4.07011e-29 -3.3152e-25
          5.64208e-25 -1.22164e-24 -2.00058e-24 -3.30426e-25 -2.6407e-24 1.00314e-24 -2.77353e-23 0 2.77107e-23 -2.02897e-23 1.67372e-23 4.21267e-25
        </DataArray>
        <DataArray type="Float32" Name="velocity[2]" NumberOfComponents="1" format="ascii">
          -2.77595e-12 3.63982e-09 -2.73946e-09 -2.60552e-09 -2.84617e-09 -2.91384e-09 -2.58369e-09 -2.38105e-09 -2.38615e-09 -3.03293e-09 -3.18742e-09 -3.01317e-09
          -2.5238e-09 -2.02182e-09 -1.37603e-09 -1.79355e-10 1.3538e-08 -2.19606e-09 -2.52336e-09 -1.66983e-09 -1.52255e-09 -5.94768e-10 -1.45745e-09 -1.70831e-09
          -3.13284e-09 -3.43343e-09 -4.39619e-09 -2.9591e-09 -1.62224e-09 -1.84966e-09 -1.40403e-09 2.25246e-08 -5.76947e-10 1.39533e-09 -3.49264e-09 -2.39894e-09
          -2.24225e-10 -9.58855e-10 -2.67313e-09 -4.23692e-09 -4.0162e-09 -7.61537e-09 -3.50485e-09 -2.1365e-09 -2.49173e-09 -3.39765e-09 2.64878e-08 2.82581e-10
          1.30103e-08 -5.48284e-09 -5.11437e-09 -2.51964e-09 -1.3609e-09 -3.73074e-09 -5.12027e-09 -3.6842e-09 -1.10013e-08 -2.63511e-09 -2.4551e-09 -3.26812e-09
          -1.14064e-08 -8.205e-10 -9.09259e-10 -2.37765e-08 -1.16747e-08 -1.40628e-08 -1.05306e-08 -6.42032e-09 -4.90464e-09 -6.2128e-09 -5.41495e-09 -1.78696e-08
          -1.1738e-09 -1.63986e-09 -3.59317e-09 -2.97966e-08 -3.71858e-08 -2.2947e-09 -4.63364e-08 -1.55986e-08 -2.74022e-08 -1.68412e-08 -1.93247e-08 -4.11399e-09
          -3.84415e-09 -5.00385e-09 -2.4564e-08 -9.19255e-10 -1.33128e-09 -3.87506e-09 -3.11976e-08 -3.38605e-08 -1.66217e-09 -1.84325e-08 -1.19666e-08 -3.49531e-08
          -1.37751e-08 -3.30976e-08 -3.48931e-09 -2.62397e-09 -5.12655e-09 -2.9244e-08 -7.83699e-10 -1.12847e-09 -4.01837e-09 -2.85756e-08 -3.16125e-08 -1.97892e-09
          -7.09635e-09 -1.01597e-08 -3.79395e-08 -8.71322e-09 -4.48834e-08 -2.63276e-09 -1.86053e-09 -4.72357e-09 -3.1885e-08 -9.83489e-10 -1.48371e-09 -4.50901e-09
          -2.57691e-08 -2.8812e-08 -2.14526e-09 -3.33815e-09 -8.8038e-09 -3.96911e-08 -4.40508e-09 -5.67685e-08 -1.63516e-09 -1.17486e-09 -5.61629e-09 -2.94765e-08
          -9.27125e-10 -1.3474e-09 -4.90534e-09 -2.14004e-08 -2.7676e-08 -4.24218e-09 -2.29272e-09 -7.16567e-09 -4.05933e-08 -2.95741e-09 -6.94025e-08 -1.21722e-09
          -8.40543e-10 -9.08959e-09 -2.42392e-08 -1.10981e-09 -1.25585e-09 -5.31036e-09 -1.49834e-08 -2.40339e-08 -5.11068e-09 -2.09314e-09 -6.35581e-09 -4.09992e-08
          -1.6578e-09 -7.91371e-08 -1.92967e-09 -7.59797e-10 -1.1877e-08 -1.90244e-08 -1.88374e-09 -1.2777e-09 -5.60154e-09 -1.1122e-08 -2.09887e-08 -5.87635e-09
          -1.7439e-09 -5.44014e-09 -4.39575e-08 -1.1627e-09 -8.63649e-08 -2.7578e-09 -4.36859e-10 -1.21798e-08 -1.06311e-08 -4.27853e-09 -2.21657e-09 -5.77789e-09
          -8.31761e-09 -1.73781e-08 -6.69153e-09 -1.43587e-09 -3.68971e-09 -4.32169e-08 -2.44093e-09 -9.42086e-08 -8.73552e-09 -8.72306e-10 -1.0333e-08 -5.38989e-09
          -6.9884e-09 -3.29541e-09 -5.70474e-09 -6.79889e-09 -1.48483e-08 -5.118e-09 -1.86727e-09 -4.41367e-09 -3.91263e-08 -1.13252e-09 -9.16863e-08 -1.63734e-08
          -2.81966e-09 -4.84177e-09 -2.41946e-09 -7.57245e-09 -5.05727e-09 -5.0147e-09 -7.45134e-09 -1.353e-08 -3.39374e-09 -1.66236e-09 -5.65956e-09 -3.8543e-08
          -7.32872e-10 -8.4014e-08 -1.99167e-08 -5.29408e-09 -3.61645e-09 -1.71639e-09 -6.60465e-09 -7.16453e-09 -4.21415e-09 -9.3254e-09 -1.05738e-08 -2.70346e-09
          -1.35369e-09 -6.59355e-09 -3.80945e-08 -9.73384e-10 -7.27825e-08 -2.26377e-08 -8.77048e-09 -4.55802e-09 -4.1027e-09 -9.08463e-09 -1.12181e-08 -3.29413e-09
          -1.01602e-08 -8.07791e-09 -2.01856e-09 -1.73555e-09 -8.81348e-09 -3.35527e-08 -2.23459e-09 -5.86066e-08 -2.31452e-08 -1.22213e-08 -3.22223e-09 -3.58507e-09
          -8.63939e-09 -1.73042e-08 -2.46676e-09 -1.02291e-08 -6.6806e-09 -1.19455e-09 -1.65027e-09 -1.33403e-08 -2.49422e-08 -3.24953e-09 -4.60725e-08 -2.5114e-08
          -1.67784e-08 -2.91035e-09 -3.09739e-09 -5.83667e-09 -2.16183e-08 -1.98572e-09 -9.50176e-09 -5.4367e-09 -1.38794e-09 -1.32535e-09 -1.68336e-08 -1.67182e-08
          -3.36149e-09 -3.34959e-08 -2.55533e-08 -2.55383e-08 -2.99301e-09 -3.2807e-09 -6.8303e-09 -2.49672e-08 -2.19389e-09 -7.98001e-09 -3.78529e-09 -1.12287e-09
          -1.07469e-09 -1.80642e-08 -1.03305e-08 -3.17751e-09 -2.50381e-08 -1.88602e-08 -4.22066e-08 -3.02361e-09 -3.06198e-09 -8.34899e-09 -2.6509e-08 -2.76849e-09
          -6.27846e-09 -3.024e-09 -1.30032e-09 -1.04646e-09 -1.73909e-08 -6.69713e-09 -3.11541e-09 -2.01003e-08 -9.32947e-09 -5.49777e-08 -3.32045e-09 -3.79727e-09
          -1.02277e-08 -2.80457e-08 -3.08749e-09 -4.15465e-09 -2.05792e-09 -1.4476e-09 -1.19322e-09 -1.37045e-08 -5.88842e-09 -3.48006e-09 -1.90804e-08 -5.88606e-09
          -5.75568e-08 -4.21936e-09 -5.75721e-09 -1.14624e-08 -3.00598e-08 -4.38474e-09 -2.04657e-09 -1.11087e-09 -1.02462e-09 -1.10264e-09 -7.88568e-09 -5.38426e-09
          -3.75811e-09 -2.03276e-08 -5.68531e-09 -5.14371e-08 -6.98716e-09 -9.93858e-09 -1.59102e-08 -3.18843e-08 -5.54187e-09 -6.35745e-10 -4.7297e-10 -3.52296e-10
          -3.54514e-10 -2.16834e-09 -2.31245e-09 -1.88233e-09 -1.17314e-08 -5.87791e-09 -2.98757e-08 -1.27885e-08 -1.1191e-08 -1.27445e-08 -1.77448e-08 -2.97567e-09
        </DataArray>
        <DataArray type="Float32" Name="z[0]" NumberOfComponents="1" format="ascii">
          0.150578 0.150579 0.15058 0.150582 0.150582 0.150583 0.150584 0.150585 0.150585 0.150586 0.150587 0.150588
          0.150589 0.150591 0.150596 0.150581 0.150582 0.150583 0.150585 0.150586 0.150587 0.150587 0.150588 0.150588
          0.150589 0.15059 0.150591 0.150593 0.150595 0.150599 0.150584 0.150585 0.150587 0.150588 0.150589 0.15059
          0.15059 0.150591 0.150592 0.150593 0.150593 0.150595 0.150596 0.150598 0.150602 0.150588 0.150589 0.15059
          0.150591 0.150592 0.150593 0.150594 0.150594 0.150595 0.150596 0.150597 0.150598 0.150599 0.150601 0.150605
          0.150591 0.150592 0.150593 0.150594 0.150595 0.150599 0.150643 0.190003 0.150598 0.150599 0.1506 0.150601
          0.150602 0.150604 0.150609 0.150594 0.150595 0.150596 0.150597 0.150615 0.300119 0.35653 0.390671 0.150601
          0.150602 0.150603 0.150604 0.150605 0.150607 0.150612 0.150597 0.150598 0.150599 0.150605 0.266931 0.413869