<?xml version="1.0"?>
<VTKFile type="UnstructuredGrid" version="0.1" byte_order="LittleEndian">
  <UnstructuredGrid>
    <Piece NumberOfCells="360" NumberOfPoints="800">
      <CellData Scalars="pressure[0]">
        <DataArray type="Float32" Name="pressure[0]" NumberOfComponents="1" format="ascii">
          2.10296e+07 2.10442e+07 2.16535e+07 2.22871e+07 2.26614e+07 2.30858e+07 2.32182e+07 2.32674e+07 2.3327e+07 2.33931e+07 2.35799e+07 2.38893e+07
          2.41189e+07 2.47423e+07 2.54881e+07 2.10738e+07 2.10883e+07 2.1762e+07 2.24294e+07 2.28399e+07 2.32646e+07 2.33617e+07 2.34001e+07 2.34615e+07
          2.35362e+07 2.37959e+07 2.41091e+07 2.42953e+07 2.49364e+07 2.56544e+07 2.11195e+07 2.11361e+07 2.18377e+07 2.25759e+07 2.29415e+07 2.33392e+07
          2.34556e+07 2.35119e+07 2.35916e+07 2.36949e+07 2.40461e+07 2.44019e+07 2.45867e+07 2.51806e+07 2.58652e+07 2.12188e+07 2.12654e+07 2.17095e+07
          2.27109e+07 2.30705e+07 2.34535e+07 2.35587e+07 2.36101e+07 2.37333e+07 2.3895e+07 2.43644e+07 2.47732e+07 2.49565e+07 2.54712e+07 2.61277e+07
          2.13516e+07 2.13756e+07 1.98002e+07 2.28128e+07 2.32622e+07 2.36659e+07 2.37347e+07 2.37714e+07 2.39697e+07 2.42723e+07 2.47463e+07 2.51306e+07
          2.53192e+07 2.58002e+07 2.63859e+07 2.15525e+07 2.15956e+07 2.22093e+07 2.33392e+07 2.36653e+07 2.3933e+07 2.39724e+07 2.40022e+07 2.42687e+07
          2.47166e+07 2.5201e+07 2.54533e+07 2.56565e+07 2.6131e+07 2.66755e+07 2.18103e+07 2.18609e+07 2.29147e+07 2.38358e+07 2.40501e+07 2.42355e+07
          2.42716e+07 2.43222e+07 2.4561e+07 2.51491e+07 2.56253e+07 2.57389e+07 2.59325e+07 2.64896e+07 2.7079e+07 2.21804e+07 2.22352e+07 2.33611e+07
          2.41986e+07 2.43936e+07 2.45261e+07 2.4565e+07 2.46442e+07 2.49226e+07 2.55139e+07 2.59092e+07 2.59989e+07 2.62576e+07 2.68615e+07 2.76368e+07
          2.27189e+07 2.27815e+07 2.37061e+07 2.44816e+07 2.46988e+07 2.47923e+07 2.49685e+07 2.51576e+07 2.54607e+07 2.59655e+07 2.62132e+07 2.62534e+07
          2.65177e+07 2.72857e+07 2.81946e+07 2.33722e+07 2.34736e+07 2.40057e+07 2.45896e+07 2.49504e+07 2.50263e+07 2.54255e+07 2.58596e+07 2.6088e+07
          2.64254e+07 2.65888e+07 2.66239e+07 2.69034e+07 2.77162e+07 2.85265e+07 2.42267e+07 2.43522e+07 2.45933e+07 2.49282e+07 2.51886e+07 2.52246e+07
          2.58301e+07 2.64937e+07 2.66733e+07 2.68632e+07 2.69782e+07 2.70252e+07 2.72644e+07 2.80752e+07 2.87713e+07 2.49443e+07 2.50169e+07 2.51326e+07
          2.53586e+07 2.55488e+07 2.55828e+07 2.63075e+07 2.71253e+07 2.71925e+07 2.73059e+07 2.73848e+07 2.74385e+07 2.76681e+07 2.84344e+07 2.90396e+07
          2.54814e+07 2.55323e+07 2.55795e+07 2.5818e+07 2.59984e+07 2.61942e+07 2.70123e+07 2.77582e+07 2.78372e+07 2.78585e+07 2.78789e+07 2.79519e+07
          2.82042e+07 2.94524e+07 2.98333e+07 2.5902e+07 2.59553e+07 2.60481e+07 2.6414e+07 2.70624e+07 2.7224e+07 2.78699e+07 2.83923e+07 2.84468e+07
          2.84479e+07 2.83896e+07 2.86571e+07 2.97718e+07 3.05216e+07 3.02836e+07 2.62426e+07 2.62863e+07 2.66592e+07 2.71971e+07 2.81075e+07 2.81981e+07
          2.8609e+07 2.89364e+07 2.89877e+07 2.90613e+07 2.91972e+07 3.00654e+07 3.08052e+07 3.09994e+07 3.08291e+07 2.71054e+07 2.714e+07 2.74845e+07
          2.81078e+07 2.87086e+07 2.87886e+07 2.90872e+07 2.92866e+07 2.93383e+07 2.94186e+07 2.97405e+07 3.05761e+07 3.12017e+07 3.15462e+07 3.13459e+07
          2.79492e+07 2.79866e+07 2.81214e+07 2.90268e+07 2.92173e+07 2.92572e+07 2.94001e+07 2.95287e+07 2.95784e+07 2.96446e+07 3.00896e+07 3.10868e+07
          3.17564e+07 3.20885e+07 3.18198e+07 2.8627e+07 2.86847e+07 2.90573e+07 2.93847e+07 2.953e+07 2.95747e+07 2.96814e+07 2.97728e+07 2.98249e+07
          2.98848e+07 3.0436e+07 3.1492e+07 3.21759e+07 3.2444e+07 3.22933e+07 2.89594e+07 2.90266e+07 2.92603e+07 2.96134e+07 2.97957e+07 2.9844e+07
          2.9934e+07 3.00114e+07 3.00587e+07 3.0116e+07 3.07231e+07 3.18914e+07 3.25921e+07 3.27885e+07 3.29568e+07 2.92225e+07 2.92818e+07 2.94955e+07
          2.98461e+07 3.00239e+07 3.00728e+07 3.01583e+07 3.02299e+07 3.02777e+07 3.03423e+07 3.09435e+07 3.22316e+07 3.30021e+07 3.31529e+07 3.35879e+07
          2.94404e+07 2.95088e+07 2.96782e+07 3.00021e+07 3.02242e+07 3.02787e+07 3.03701e+07 3.04451e+07 3.05113e+07 3.05952e+07 3.14479e+07 3.28257e+07
          3.33811e+07 3.35413e+07 3.40777e+07 2.96483e+07 2.97196e+07 2.98699e+07 3.01865e+07 3.04131e+07 3.04737e+07 3.058e+07 3.0666e+07 3.0754e+07
          3.08521e+07 3.20048e+07 3.34358e+07 3.37746e+07 3.3973e+07 3.45548e+07 2.98358e+07 2.99004e+07 3.00834e+07 3.04177e+07 3.06019e+07 3.06727e+07
          3.07985e+07 3.08987e+07 3.10142e+07 3.11384e+07 3.2474e+07 3.39361e+07 3.42249e+07 3.44491e+07 3.48926e+07 3.00053e+07 3.00664e+07 3.0226e+07
          3.05616e+07 3.07997e+07 3.08724e+07 3.10147e+07 3.1132e+07 3.12744e+07 3.14441e+07 3.29944e+07 3.4369e+07 3.46903e+07 3.48916e+07 3.51894e+07
        </DataArray>
        <DataArray type="Float32" Name="pressure[1]" NumberOfComponents="1" format="ascii">
          2.10296e+07 2.10442e+07 2.16535e+07 2.22871e+07 2.26614e+07 2.30858e+07 2.32182e+07 2.32674e+07 2.3327e+07 2.33931e+07 2.35799e+07 2.38893e+07
          2.41189e+07 2.47423e+07 2.54881e+07 2.10738e+07 2.10883e+07 2.1762e+07 2.24294e+07 2.28399e+07 2.32646e+07 2.33617e+07 2.34001e+07 2.34615e+07
          2.35362e+07 2.37959e+07 2.41091e+07 2.42953e+07 2.49364e+07 2.56544e+07 2.11195e+07 2.11361e+07 2.18377e+07 2.25759e+07 2.29415e+07 2.33392e+07
          2.34556e+07 2.35119e+07 2.35916e+07 2.36949e+07 2.40461e+07 2.44019e+07 2.45867e+07 2.51806e+07 2.58652e+07 2.12188e+07 2.12654e+07 2.17095e+07
          2.27109e+07 2.30705e+07 2.34535e+07 2.35587e+07 2.36101e+07 2.37333e+07 2.3895e+07 2.43644e+07 2.47732e+07 2.49565e+07 2.54712e+07 2.61277e+07
          2.13516e+07 2.13756e+07 1.98002e+07 2.28128e+07 2.32622e+07 2.36659e+07 2.37347e+07 2.37714e+07 2.39697e+07 2.42723e+07 2.47463e+07 2.51306e+07
          2.53192e+07 2.58002e+07 2.63859e+07 2.15525e+07 2.15956e+07 2.22093e+07 2.33392e+07 2.36653e+07 2.3933e+07 2.39724e+07 2.40022e+07 2.42687e+07
          2.47166e+07 2.5201e+07 2.54533e+07 2.56565e+07 2.6131e+07 2.66755e+07 2.18103e+07 2.18609e+07 2.29147e+07 2.38358e+07 2.40501e+07 2.42355e+07
          2.42716e+07 2.43222e+07 2.4561e+07 2.51491e+07 2.56253e+07 2.57389e+07 2.59325e+07 2.64896e+07 2.7079e+07 2.21804e+07 2.22352e+07 2.33611e+07
          2.41986e+07 2.43936e+07 2.45261e+07 2.4565e+07 2.46442e+07 2.49226e+07 2.55139e+07 2.59092e+07 2.59989e+07 2.62576e+07 2.68615e+07 2.76368e+07
          2.27189e+07 2.27815e+07 2.37061e+07 2.44816e+07 2.46988e+07 2.47923e+07 2.49685e+07 2.51576e+07 2.54607e+07 2.59655e+07 2.62132e+07 2.62534e+07
          2.65177e+07 2.72857e+07 2.81946e+07 2.33722e+07 2.34736e+07 2.40057e+07 2.45896e+07 2.49504e+07 2.50263e+07 2.54255e+07 2.58596e+07 2.6088e+07
          2.64254e+07 2.65888e+07 2.66239e+07 2.69034e+07 2.77162e+07 2.85265e+07 2.42267e+07 2.43522e+07 2.45933e+07 2.49282e+07 2.51886e+07 2.52246e+07
          2.58301e+07 2.64937e+07 2.66733e+07 2.68632e+07 2.69782e+07 2.70252e+07 2.72644e+07 2.80752e+07 2.87713e+07 2.49443e+07 2.50169e+07 2.51326e+07
          2.53586e+07 2.55488e+07 2.55828e+07 2.63075e+07 2.71253e+07 2.71925e+07 2.73059e+07 2.73848e+07 2.74385e+07 2.76681e+07 2.84344e+07 2.90396e+07
          2.54814e+07 2.55323e+07 2.55795e+07 2.5818e+07 2.59984e+07 2.61942e+07 2.70123e+07 2.77582e+07 2.78372e+07 2.78585e+07 2.78789e+07 2.79519e+07
          2.82042e+07 2.94524e+07 2.98333e+07 2.5902e+07 2.59553e+07 2.60481e+07 2.6414e+07 2.70624e+07 2.7224e+07 2.78699e+07 2.83923e+07 2.84468e+07
          2.84479e+07 2.83896e+07 2.86571e+07 2.97718e+07 3.05216e+07 3.02836e+07 2.62426e+07 2.62863e+07 2.66592e+07 2.71971e+07 2.81075e+07 2.81981e+07
          2.8609e+07 2.89364e+07 2.89877e+07 2.90613e+07 2.91972e+07 3.00654e+07 3.08052e+07 3.09994e+07 3.08291e+07 2.71054e+07 2.714e+07 2.74845e+07
          2.81078e+07 2.87086e+07 2.87886e+07 2.90872e+07 2.92866e+07 2.93383e+07 2.94186e+07 2.97405e+07 3.05761e+07 3.12017e+07 3.15462e+07 3.13459e+07
          2.79492e+07 2.79866e+07 2.81214e+07 2.90268e+07 2.92173e+07 2.92572e+07 2.94001e+07 2.95287e+07 2.95784e+07 2.96446e+07 3.00896e+07 3.10868e+07
          3.17564e+07 3.20885e+07 3.18198e+07 2.8627e+07 2.86847e+07 2.90573e+07 2.93847e+07 2.953e+07 2.95747e+07 2.96814e+07 2.97728e+07 2.98249e+07
          2.98848e+07 3.0436e+07 3.1492e+07 3.21759e+07 3.2444e+07 3.22933e+07 2.89594e+07 2.90266e+07 2.92603e+07 2.96134e+07 2.97957e+07 2.9844e+07
          2.9934e+07 3.00114e+07 3.00587e+07 3.0116e+07 3.07231e+07 3.18914e+07 3.25921e+07 3.27885e+07 3.29568e+07 2.92225e+07 2.92818e+07 2.94955e+07
          2.98461e+07 3.00239e+07 3.00728e+07 3.01583e+07 3.02299e+07 3.02777e+07 3.03423e+07 3.09435e+07 3.22316e+07 3.30021e+07 3.31529e+07 3.35879e+07
          2.94404e+07 2.95088e+07 2.96782e+07 3.00021e+07 3.02242e+07 3.02787e+07 3.03701e+07 3.04451e+07 3.05113e+07 3.05952e+07 3.14479e+07 3.28257e+07
          3.33811e+07 3.35413e+07 3.40777e+07 2.96483e+07 2.97196e+07 2.98699e+07 3.01865e+07 3.04131e+07 3.04737e+07 3.058e+07 3.0666e+07 3.0754e+07
          3.08521e+07 3.20048e+07 3.34358e+07 3.37746e+07 3.3973e+07 3.45548e+07 2.98358e+07 2.99004e+07 3.00834e+07 3.04177e+07 3.06019e+07 3.06727e+07
          3.07985e+07 3.08987e+07 3.10142e+07 3.11384e+07 3.2474e+07 3.39361e+07 3.42249e+07 3.44491e+07 3.48926e+07 3.00053e+07 3.00664e+07 3.0226e+07
          3.05616e+07 3.07997e+07 3.08724e+07 3.10147e+07 3.1132e+07 3.12744e+07 3.14441e+07 3.29944e+07 3.4369e+07 3.46903e+07 3.48916e+07 3.51894e+07
        </DataArray>
        <DataArray type="Float32" Name="pressure[2]" NumberOfComponents="1" format="ascii">
          2.10296e+07 2.10442e+07 2.16535e+07 2.22871e+07 2.26614e+07 2.30858e+07 2.32182e+07 2.32674e+07 2.3327e+07 2.33931e+07 2.35799e+07 2.38893e+07
          2.41189e+07 2.47423e+07 2.54881e+07 2.10738e+07 2.10883e+07 2.1762e+07 2.24294e+07 2.28399e+07 2.32646e+07 2.33617e+07 2.34001e+07 2.34615e+07
          2.35362e+07 2.37959e+07 2.41091e+07 2.42953e+07 2.49364e+07 2.56544e+07 2.11195e+07 2.11361e+07 2.18377e+07 2.25759e+07 2.29415e+07 2.33392e+07
          2.34556e+07 2.35119e+07 2.35916e+07 2.36949e+07 2.40461e+07 2.44019e+07 2.45867e+07 2.51806e+07 2.58652e+07 2.12188e+07 2.12654e+07 2.17095e+07
          2.27109e+07 2.30705e+07 2.34535e+07 2.35587e+07 2.36101e+07 2.37333e+07 2.3895e+07 2.43644e+07 2.47732e+07 2.49565e+07 2.54712e+07 2.61277e+07
          2.13516e+07 2.13756e+07 1.98002e+07 2.28128e+07 2.32622e+07 2.36659e+07 2.37347e+07 2.37714e+07 2.39697e+07 2.42723e+07 2.47463e+07 2.51306e+07
          2.53192e+07 2.58002e+07 2.63859e+07 2.15525e+07 2.15956e+07 2.22093e+07 2.33392e+07 2.36653e+07 2.3933e+07 2.39724e+07 2.40022e+07 2.42687e+07
          2.47166e+07 2.5201e+07 2.54533e+07 2.56565e+07 2.6131e+07 2.66755e+07 2.18103e+07 2.18609e+07 2.29147e+07 2.38358e+07 2.40501e+07 2.42355e+07
          2.42716e+07 2.43222e+07 2.4561e+07 2.51491e+07 2.56253e+07 2.57389e+07 2.59325e+07 2.64896e+07 2.7079e+07 2.21804e+07 2.22352e+07 2.33611e+07
          2.41986e+07 2.43936e+07 2.45261e+07 2.4565e+07 2.46442e+07 2.49226e+07 2.55139e+07 2.59092e+07 2.59989e+07 2.62576e+07 2.68615e+07 2.76368e+07
          2.27189e+07 2.27815e+07 2.37061e+07 2.44816e+07 2.46988e+07 2.47923e+07 2.49685e+07 2.51576e+07 2.54607e+07 2.59655e+07 2.62132e+07 2.62534e+07
          2.65177e+07 2.72857e+07 2.81946e+07 2.33722e+07 2.34736e+07 2.40057e+07 2.45896e+07 2.49504e+07 2.50263e+07 2.54255e+07 2.58596e+07 2.6088e+07
          2.64254e+07 2.65888e+07 2.66239e+07 2.69034e+07 2.77162e+07 2.85265e+07 2.42267e+07 2.43522e+07 2.45933e+07 2.49282e+07 2.51886e+07 2.52246e+07
          2.58301e+07 2.64937e+07 2.66733e+07 2.68632e+07 2.69782e+07 2.70252e+07 2.72644e+07 2.80752e+07 2.87713e+07 2.49443e+07 2.50169e+07 2.51326e+07
          2.53586e+07 2.55488e+07 2.55828e+07 2.63075e+07 2.71253e+07 2.71925e+07 2.73059e+07 2.73848e+07 2.74385e+07 2.76681e+07 2.84344e+07 2.90396e+07
          2.54814e+07 2.55323e+07 2.55795e+07 2.5818e+07 2.59984e+07 2.61942e+07 2.70123e+07 2.77582e+07 2.78372e+07 2.78585e+07 2.78789e+07 2.79519e+07
          2.82042e+07 2.94524e+07 2.98333e+07 2.5902e+07 2.59553e+07 2.60481e+07 2.6414e+07 2.70624e+07 2.7224e+07 2.78699e+07 2.83923e+07 2.84468e+07
          2.84479e+07 2.83896e+07 2.86571e+07 2.97718e+07 3.05216e+07 3.02836e+07 2.62426e+07 2.62863e+07 2.66592e+07 2.71971e+07 2.81075e+07 2.81981e+07
          2.8609e+07 2.89364e+07 2.89877e+07 2.90613e+07 2.91972e+07 3.00654e+07 3.08052e+07 3.09994e+07 3.08291e+07 2.71054e+07 2.714e+07 2.74845e+07
          2.81078e+07 2.87086e+07 2.87886e+07 2.90872e+07 2.92866e+07 2.93383e+07 2.94186e+07 2.97405e+07 3.05761e+07 3.12017e+07 3.15462e+07 3.13459e+07
          2.79492e+07 2.79866e+07 2.81214e+07 2.90268e+07 2.92173e+07 2.92572e+07 2.94001e+07 2.95287e+07 2.95784e+07 2.96446e+07 3.00896e+07 3.10868e+07
          3.17564e+07 3.20885e+07 3.18198e+07 2.8627e+07 2.86847e+07 2.90573e+07 2.93847e+07 2.953e+07 2.95747e+07 2.96814e+07 2.97728e+07 2.98249e+07
          2.98848e+07 3.0436e+07 3.1492e+07 3.21759e+07 3.2444e+07 3.22933e+07 2.89594e+07 2.90266e+07 2.92603e+07 2.96134e+07 2.97957e+07 2.9844e+07
          2.9934e+07 3.00114e+07 3.00587e+07 3.0116e+07 3.07231e+07 3.18914e+07 3.25921e+07 3.27885e+07 3.29568e+07 2.92225e+07 2.92818e+07 2.94955e+07
          2.98461e+07 3.00239e+07 3.00728e+07 3.01583e+07 3.02299e+07 3.02777e+07 3.03423e+07 3.09435e+07 3.22316e+07 3.30021e+07 3.31529e+07 3.35879e+07
          2.94404e+07 2.95088e+07 2.96782e+07 3.00021e+07 3.02242e+07 3.02787e+07 3.03701e+07 3.04451e+07 3.05113e+07 3.05952e+07 3.14479e+07 3.28257e+07
          3.33811e+07 3.35413e+07 3.40777e+07 2.96483e+07 2.97196e+07 2.98699e+07 3.01865e+07 3.04131e+07 3.04737e+07 3.058e+07 3.0666e+07 3.0754e+07
          3.08521e+07 3.20048e+07 3.34358e+07 3.37746e+07 3.3973e+07 3.45548e+07 2.98358e+07 2.99004e+07 3.00834e+07 3.04177e+07 3.06019e+07 3.06727e+07
          3.07985e+07 3.08987e+07 3.10142e+07 3.11384e+07 3.2474e+07 3.39361e+07 3.42249e+07 3.44491e+07 3.48926e+07 3.00053e+07 3.00664e+07 3.0226e+07
          3.05616e+07 3.07997e+07 3.08724e+07 3.10147e+07 3.1132e+07 3.12744e+07 3.14441e+07 3.29944e+07 3.4369e+07 3.46903e+07 3.48916e+07 3.51894e+07
        </DataArray>
        <DataArray type="Float32" Name="velocity[0]" NumberOfComponents="1" format="ascii">
          -1.12024e-09 3.694e-08 1.95377e-10 -3.13293e-09 -3.57566e-10 -1.38313e-09 -3.95755e-10 1.26294e-09 1.99379e-09 -3.22329e-10 -1.86607e-09 -2.59875e-09
          -1.77269e-09 -5.81368e-10 -2.64569e-09 -1.40111e-08 1.19047e-07 4.88786e-10 -1.56475e-08 -1.53651e-11 1.70099e-09 8.08496e-09 5.55161e-09 4.4219e-09
          -2.27867e-09 -3.91543e-09 -1.11517e-08 -6.83941e-09 -1.77453e-09 -7.01773e-09 -2.15471e-08 1.68877e-07 1.16718e-09 4.84762e-09 5.32597e-10 4.95481e-09
          1.45563e-08 1.04497e-08 2.40653e-09 -5.84247e-09 -4.67755e-09 -2.80049e-08 -9.77037e-09 -3.77467e-09 -1.05202e-08 -1.50089e-08 1.76559e-07 6.99777e-09
          8.30342e-08 -1.33398e-09 -7.22715e-09 -2.91217e-09 1.69132e-09 -3.89214e-09 -1.29986e-08 -5.97277e-09 -4.81941e-08 -6.93782e-09 -5.51543e-09 -1.43615e-08
          -9.07249e-08 -3.17586e-08 -2.73107e-10 -1.22109e-07 -1.42331e-08 -5.26206e-08 -5.65152e-08 -3.99472e-08 -6.77943e-09 -1.33979e-08 -8.40291e-09 -8.17075e-08
          -3.50979e-09 -5.05553e-09 -1.771e-08 -1.7755e-07 -2.20725e-07 -7.82104e-09 -2.62573e-07 -3.30031e-08 -1.78557e-07 -1.04786e-07 -7.66253e-08 -4.94716e-09
          -6.03327e-09 -1.28386e-08 -1.19168e-07 -2.07098e-09 -4.03007e-09 -1.99623e-08 -1.7815e-07 -1.91494e-07 -2.39649e-09 -8.8543e-08 -3.33857e-08 -3.33122e-07
          -1.00079e-07 -9.58762e-08 -4.47057e-09 -2.78837e-09 -1.59761e-08 -1.45705e-07 -1.81592e-09 -3.97908e-09 -2.15243e-08 -1.61744e-07 -1.75409e-07 -2.00527e-09
          -1.64782e-08 -2.1117e-08 -3.98407e-07 -4.93867e-08 -1.63621e-07 -5.28221e-09 -2.48658e-09 -1.84857e-08 -1.6555e-07 -1.52813e-09 -4.11064e-09 -2.32888e-08
          -1.45623e-07 -1.5774e-07 -2.27341e-09 -2.46443e-09 -1.34125e-08 -3.8642e-07 -9.07791e-09 -2.64134e-07 -5.34735e-09 -3.04373e-09 -3.19553e-08 -1.62765e-07
          -1.49626e-09 -3.73344e-09 -2.56165e-08 -1.18682e-07 -1.44255e-07 -9.21314e-09 -6.43134e-10 -1.06347e-08 -3.51403e-07 -3.33343e-09 -3.59474e-07 -5.4602e-09
          -3.50522e-09 -5.51245e-08 -1.40042e-07 -2.44119e-09 -3.15676e-09 -2.79363e-08 -8.77898e-08 -1.36877e-07 -2.00397e-08 -1.61733e-09 -2.062e-08 -3.06507e-07
          -1.40693e-09 -4.27091e-07 -1.09933e-08 -4.99427e-09 -7.12773e-08 -1.15011e-07 -6.05004e-09 -3.50774e-09 -3.00294e-08 -6.9849e-08 -1.31598e-07 -2.68246e-08
          -1.48019e-09 -3.77651e-08 -2.67061e-07 -1.39768e-09 -4.40869e-07 -2.13534e-08 -1.09657e-08 -7.83269e-08 -8.3313e-08 -1.68856e-08 -6.13985e-09 -3.22997e-08
          -6.24937e-08 -1.32107e-07 -2.43986e-08 -2.92665e-09 -3.78329e-08 -2.38455e-07 -1.92023e-09 -4.52254e-07 -4.36984e-08 -1.53865e-08 -7.36822e-08 -3.9982e-08
          -3.27049e-08 -1.44552e-08 -3.39437e-08 -5.83204e-08 -1.35577e-07 -1.57987e-08 -6.90305e-09 -2.91416e-08 -2.24341e-07 -1.98744e-09 -4.68784e-07 -8.02279e-08
          -1.93067e-08 -4.37308e-08 -1.13414e-08 -3.89502e-08 -2.94136e-08 -3.29999e-08 -5.75299e-08 -1.16436e-07 -1.26995e-08 -1.10915e-08 -3.06961e-08 -2.28e-07
          -1.48597e-09 -4.55895e-07 -1.03224e-07 -2.64638e-08 -1.85974e-08 -5.37241e-09 -3.61671e-08 -4.58539e-08 -2.96998e-08 -6.18251e-08 -7.94993e-08 -1.22646e-08
          -1.0337e-08 -3.93785e-08 -2.37051e-07 -1.89097e-09 -3.95961e-07 -1.08821e-07 -3.33127e-08 -1.03105e-08 -5.97279e-09 -3.9489e-08 -6.70517e-08 -2.50842e-08
          -6.53686e-08 -5.41557e-08 -8.6585e-09 -7.92089e-09 -5.76414e-08 -2.14762e-07 -3.53903e-09 -3.17064e-07 -1.11029e-07 -5.14321e-08 -3.94627e-09 -5.5194e-09
          -3.20694e-08 -9.92209e-08 -1.99768e-08 -6.56821e-08 -4.167e-08 -3.52649e-09 -4.82666e-09 -8.39235e-08 -1.54394e-07 -5.27397e-09 -2.45863e-07 -1.22085e-07
          -8.00588e-08 -2.75427e-09 -3.68577e-09 -2.07164e-08 -1.29542e-07 -1.56308e-08 -5.98055e-08 -2.96964e-08 -1.8193e-09 -1.64902e-09 -1.02197e-07 -9.70097e-08
          -5.52404e-09 -1.78565e-07 -1.23807e-07 -1.28147e-07 -1.59844e-09 -3.03103e-09 -2.70638e-08 -1.48051e-07 -1.37178e-08 -4.99065e-08 -2.00628e-08 -1.66649e-09
          -7.25547e-10 -1.07539e-07 -5.45343e-08 -4.58473e-09 -1.31576e-07 -8.0785e-08 -2.2466e-07 -2.82601e-09 -4.32321e-09 -4.02206e-08 -1.57068e-07 -1.48004e-08
          -3.82372e-08 -1.35046e-08 -1.47662e-09 -1.89336e-10 -9.92318e-08 -2.82441e-08 -3.9144e-09 -1.0395e-07 -3.40172e-08 -3.13121e-07 -4.44853e-09 -7.97416e-09
          -4.88976e-08 -1.64218e-07 -1.70428e-08 -2.40777e-08 -6.89685e-09 -2.3037e-09 -8.91301e-10 -7.30167e-08 -1.90951e-08 -3.83057e-09 -9.88191e-08 -1.85367e-08
          -3.3164e-07 -4.0573e-09 -1.53049e-08 -5.35357e-08 -1.71502e-07 -2.11798e-08 -1.12498e-08 -2.76175e-09 -1.0382e-09 -5.89285e-10 -3.63516e-08 -1.42235e-08
          -3.15027e-09 -1.04761e-07 -1.4979e-08 -2.86011e-07 -5.62936e-09 -2.63806e-08 -7.03079e-08 -1.78778e-07 -2.76861e-08 -2.98261e-09 -6.22966e-10 2.26636e-10
          8.30923e-11 -8.55927e-09 -5.42331e-09 -1.15441e-09 -5.34745e-08 -6.98302e-09 -1.23704e-07 -3.71463e-09 -1.60047e-08 -4.20109e-08 -9.19091e-08 -1.55518e-08
        </DataArray>
        <DataArray type="Float32" Name="velocity[1]" NumberOfComponents="1" format="ascii">
          1.74099e-25 5.8788e-24 9.20335e-26 -4.86894e-25 5.557e-26 0 6.15051e-26 -1.62223e-25 4.62124e-26 5.54628e-24 -3.59348e-24 3.7137e-26
          2.36568e-24 -9.39177e-25 4.11036e-25 1.82929e-24 6.90503e-24 8.37271e-26 -1.45802e-24 -1.7995e-25 7.27413e-24 1.20699e-24 3.33983e-25 -6.88903e-24
          -1.33355e-25 0 -3.77783e-26 4.12652e-26 1.83363e-28 2.68296e-25 -6.58108e-25 -9.73544e-24 -1.74519e-24 4.64321e-24 -1.70368e-25 0
          3.10683e-25 -3.32084e-25 -3.8071e-25 0 6.88853e-24 -1.07762e-23 0 1.10475e-24 -2.76347e-25 -6.7757e-25 1.2573e-23 -1.56305e-24
          -8.00758e-24 4.10451e-25 9.90169e-24 -2.09444e-23 2.49376e-23 -3.81523e-24 1.09624e-24 3.39702e-24 -4.49002e-24 3.06603e-24 -1.28447e-24 9.63026e-25
          -1.06139e-25 -6.56882e-23 6.10565e-24 1.11984e-23 -3.99971e-25 -5.58102e-24 1.06254e-25 -9.39127e-26 3.73077e-27 -6.36959e-24 4.09709e-24 -7.53055e-24
          -2.26668e-28 1.26064e-25 -1.4759e-24 -1.41836e-25 6.95289e-24 -6.67548e-25 7.77847e-24 1.75206e-25 -1.46102e-23 0 -9.62324e-26 -2.84457e-27
          3.52737e-25 -4.24384e-25 5.51009e-24 -1.41736e-24 8.38739e-25 1.47552e-24 -1.10491e-24 1.30642e-24 0 9.73153e-24 -1.01741e-24 -2.69336e-23
          -9.35272e-26 -8.11733e-26 -3.21988e-24 5.87408e-28 -2.71174e-28 -6.79297e-28 3.52974e-26 -1.742e-28 -1.62648e-24 -1.88114e-25 1.28986e-23 1.43586e-24
          3.36175e-24 -5.53486e-26 3.06484e-23 -4.93584e-26 -5.63873e-26 -1.30751e-25 -6.35621e-26 -3.75329e-24 -1.24612e-23 -3.41691e-28 -3.6014e-25 1.90071e-24
          -1.42899e-24 -9.18321e-24 -8.92965e-26 -1.83932e-24 -3.71319e-25 5.49928e-24 0 0 -8.68831e-25 3.94767e-28 1.10973e-24 2.90019e-24
          -7.62809e-28 5.34459e-26 -7.74246e-29 -1.07002e-23 1.07933e-24 1.29597e-24 -1.31716e-25 -1.91023e-24 5.41545e-24 -9.74785e-24 7.61762e-24 8.74449e-25
          -4.85321e-26 -7.97531e-25 3.06904e-24 -8.15557e-25 0 -2.0804e-24 4.3544e-24 1.36583e-25 6.36383e-25 -1.40365e-25 2.89563e-24 -1.89352e-27
          -6.11983e-24 5.79468e-24 7.8811e-25 1.83626e-25 4.79443e-25 8.24424e-24 1.92833e-24 -2.88949e-25 1.44475e-25 -4.95612e-24 9.2804e-25 -4.21985e-25
          -1.8249e-26 1.70728e-25 -1.95586e-23 3.51268e-26 -7.49194e-25 -8.72654e-25 -7.45231e-25 -6.62987e-25 3.37492e-24 -1.84331e-24 1.05365e-24 -2.08581e-25
          4.75538e-24 1.00011e-23 0 -2.16041e-25 -1.08172e-24 2.06826e-24 4.54366e-26 2.52564e-24 -2.6502e-24 -3.7827e-28 -5.1547e-24 -1.29845e-24
          1.26305e-24 -6.35024e-25 -1.92302e-28 -4.48606e-25 1.09363e-27 8.83589e-25 -8.01961e-25 4.49749e-27 1.59807e-23 -3.50504e-26 4.88743e-26 2.97177e-24
          2.62347e-24 5.15554e-24 3.18428e-24 -5.28884e-24 4.10951e-28 -2.46733e-24 -4.30659e-24 -7.55746e-24 -6.74259e-28 7.37376e-25 5.11793e-25 6.61066e-28
          -4.22965e-26 -5.98567e-24 1.75024e-24 0 0 4.64137e-25 4.15229e-24 -5.64828e-25 4.61594e-24 0 2.76229e-24 0
          -6.2013e-25 8.38298e-25 5.64326e-28 1.05239e-25 -7.26485e-24 4.18379e-29 -7.65613e-29 -2.28958e-28 4.32679e-24 -1.84575e-28 -1.29463e-24 -2.14809e-24
          4.8571e-28 1.17601e-24 -2.06067e-28 8.76909e-27 2.00094e-24 -1.09467e-23 0 -1.12462e-23 0 1.38326e-28 3.16898e-24 -3.92237e-24
          -1.80929e-24 2.31361e-28 1.35459e-24 0 3.62002e-24 0 6.11277e-25 1.95175e-24 5.36393e-24 1.18392e-25 -6.06831e-24 -5.46201e-24
          -2.25204e-24 1.85503e-25 5.56013e-26 1.0857e-29 -1.80234e-24 -1.07462e-24 4.27069e-24 -2.1031e-24 2.32667e-24 -1.93235e-24 7.5626e-25 9.3907e-24
          -7.95001e-26 -4.39058e-24 1.03346e-23 5.65573e-24 -3.40411e-24 7.40253e-26 9.41693e-25 -4.53537e-28 1.05728e-24 3.92257e-29 -3.8532e-24 8.33914e-25
          -1.77648e-24 1.47875e-25 -2.89657e-24 -1.32667e-25 -5.8247e-24 -5.25797e-24 9.77934e-24 2.77905e-25 3.63955e-24 1.10291e-24 -3.71622e-25 -8.71676e-25
          -1.02823e-24 6.19859e-25 0 -3.83115e-26 -1.36499e-24 4.66876e-24 -8.2079e-24 8.20869e-24 -5.90021e-24 1.29473e-27 0 0
          2.45698e-25 -7.32689e-28 1.40577e-24 -1.17233e-24 -1.23103e-24 1.13677e-24 -1.91007e-24 -9.84525e-25 -1.3673e-24 2.415e-26 5.83627e-25 -3.85206e-24
          1.38325e-23 -2.62945e-25 -6.62342e-24 4.74677e-25 9.611e-25 -8.07151e-29 -8.21158e-25 -1.27492e-28 -1.57728e-28 1.16759e-25 -2.98924e-24 5.25169e-25
          -1.30771e-25 1.04983e-23 -4.35747e-24 0 -2.79726e-25 -8.74353e-25 6.74742e-24 -7.8409e-25 0 -4.63638e-25 -1.68144e-28 -3.7774e-25
          6.41519e-25 -1.32991e-24 -2.20865e-24 -3.59734e-25 -2.79047e-24 1.08524e-24 -3.0067e-23 0 3.00523e-23 -2.20193e-23 1.81756e-23 4.5736e-25
        </DataArray>
        <DataArray type="Float32" Name="velocity[2]" NumberOfComponents="1" format="ascii">
          -1.13445e-10 4.8793e-09 -3.36826e-09 -3.73214e-09 -3.00567e-09 -3.05335e-09 -2.77377e-09 -2.48835e-09 -2.4891e-09 -2.97099e-09 -3.07521e-09 -2.89447e-09
          -2.4387e-09 -1.97784e-09 -1.34871e-09 -1.67516e-09 2.03614e-08 -2.72775e-09 -5.03592e-09 -1.79333e-09 -1.69394e-09 -9.85449e-10 -1.73384e-09 -2.01623e-09
          -3.12358e-09 -3.29712e-09 -4.16872e-09 -2.79918e-09 -1.56661e-09 -1.81323e-09 -4.06695e-09 2.90246e-08 -7.8656e-10 -1.61442e-09 -3.79162e-09 -2.89284e-09
          -1.04719e-09 -1.73924e-09 -3.03401e-09 -4.22323e-09 -3.85866e-09 -7.23834e-09 -3.36012e-09 -2.08195e-09 -2.44743e-09 -2.78315e-09 3.06995e-08 2.35621e-10
          1.08496e-08 -6.26573e-09 -6.63459e-09 -4.92308e-09 -3.40475e-09 -3.84269e-09 -4.96087e-09 -3.42118e-09 -1.02301e-08 -2.55405e-09 -2.40884e-09 -3.22067e-09
          -1.0751e-08 8.49318e-10 -1.04785e-09 -2.95393e-08 -1.34548e-08 -1.79175e-08 -1.59171e-08 -1.11067e-08 -4.44469e-09 -5.80699e-09 -4.9699e-09 -1.632e-08
          -1.14102e-09 -1.61259e-09 -3.55103e-09 -3.06601e-08 -3.86888e-08 -2.59782e-09 -5.34511e-08 -1.80497e-08 -3.89223e-08 -2.13057e-08 -1.58929e-08 -3.11153e-09
          -3.41941e-09 -4.53768e-09 -2.23201e-08 -9.09375e-10 -1.32207e-09 -3.84341e-09 -3.18877e-08 -3.49806e-08 -1.89975e-09 -2.01003e-08 -1.37359e-08 -6.39256e-08
          -2.01884e-08 -1.94401e-08 -2.90424e-09 -2.59386e-09 -4.92101e-09 -2.69719e-08 -7.86034e-10 -1.12512e-09 -3.99358e-09 -2.89869e-08 -3.22368e-08 -1.99462e-09
          -5.03741e-09 -6.63688e-09 -7.32496e-08 -1.24969e-08 -3.21445e-08 -2.74478e-09 -2.21022e-09 -4.88226e-09 -3.02889e-08 -1.00742e-09 -1.50173e-09 -4.49748e-09
          -2.61164e-08 -2.90307e-08 -1.90678e-09 -2.02292e-09 -4.21276e-09 -7.07482e-08 -4.97807e-09 -4.88163e-08 -1.97688e-09 -1.5856e-09 -5.95588e-09 -2.88564e-08
          -9.52062e-10 -1.37178e-09 -4.90175e-09 -2.21146e-08 -2.79677e-08 -3.69106e-09 -1.48443e-09 -3.1791e-09 -6.42473e-08 -3.88809e-09 -6.54254e-08 -1.66584e-09
          -1.2806e-09 -9.62312e-09 -2.46529e-08 -1.16127e-09 -1.29443e-09 -5.31404e-09 -1.62288e-08 -2.5706e-08 -4.79865e-09 -1.18173e-09 -4.00179e-09 -5.4998e-08
          -2.32987e-09 -7.69011e-08 -2.72794e-09 -1.31868e-09 -1.26829e-08 -2.08163e-08 -2.09088e-09 -1.33547e-09 -5.60505e-09 -1.27207e-08 -2.41626e-08 -5.60249e-09
          -8.96259e-10 -6.91681e-09 -4.76907e-08 -1.55536e-09 -7.91713e-08 -5.00767e-09 -2.66653e-09 -1.4182e-08 -1.60936e-08 -5.07024e-09 -2.31982e-09 -6.14289e-09
          -1.11052e-08 -2.32922e-08 -4.56904e-09 -1.15615e-09 -7.61191e-09 -4.39761e-08 -2.87664e-09 -8.1844e-08 -8.34551e-09 -2.34466e-09 -1.31031e-08 -9.02093e-09
          -8.59176e-09 -3.78921e-09 -6.0826e-09 -1.04741e-08 -2.42853e-08 -3.46852e-09 -2.07186e-09 -5.95609e-09 -4.05028e-08 -1.34771e-09 -8.36418e-08 -1.39623e-08
          -1.88159e-09 -7.44798e-09 -3.49221e-09 -8.80767e-09 -5.80342e-09 -5.40304e-09 -1.00043e-08 -2.12089e-08 -3.84079e-09 -3.4431e-09 -6.64412e-09 -4.1049e-08
          -9.03395e-10 -8.13896e-08 -1.93422e-08 -5.481e-09 -4.13875e-09 -2.00229e-09 -7.52862e-09 -8.00588e-09 -4.55231e-09 -1.07549e-08 -1.4613e-08 -3.71642e-09
          -3.56561e-09 -8.5177e-09 -4.28748e-08 -1.17856e-09 -7.18947e-08 -2.23844e-08 -8.78581e-09 -4.93572e-09 -4.46405e-09 -1.00183e-08 -1.23545e-08 -3.56835e-09
          -1.14368e-08 -9.74815e-09 -2.34522e-09 -2.45969e-09 -1.05437e-08 -3.88145e-08 -2.79466e-09 -5.8911e-08 -2.34297e-08 -1.23512e-08 -3.45314e-09 -3.86718e-09
          -9.42405e-09 -1.89199e-08 -2.6739e-09 -1.16506e-08 -7.73086e-09 -1.45401e-09 -2.0385e-09 -1.54174e-08 -2.86895e-08 -3.94968e-09 -4.73785e-08 -2.5947e-08
          -1.7302e-08 -3.12872e-09 -3.34146e-09 -6.33607e-09 -2.35736e-08 -2.15531e-09 -1.08668e-08 -6.23442e-09 -1.61824e-09 -1.54004e-09 -1.90176e-08 -1.89561e-08
          -3.95043e-09 -3.52303e-08 -2.68792e-08 -2.6852e-08 -3.22844e-09 -3.54469e-09 -7.40691e-09 -2.71842e-08 -2.3814e-09 -9.13541e-09 -4.33934e-09 -1.29257e-09
          -1.23463e-09 -2.00833e-08 -1.15813e-08 -3.65466e-09 -2.65585e-08 -2.0132e-08 -4.50152e-08 -3.26829e-09 -3.31293e-09 -9.06355e-09 -2.88434e-08 -3.00773e-09
          -7.18358e-09 -3.46293e-09 -1.48943e-09 -1.19809e-09 -1.91187e-08 -7.42694e-09 -3.5007e-09 -2.13839e-08 -1.00655e-08 -5.90348e-08 -3.59364e-09 -4.11238e-09
          -1.11101e-08 -3.04976e-08 -3.35453e-09 -4.74863e-09 -2.353e-09 -1.65457e-09 -1.36343e-09 -1.49887e-08 -6.48012e-09 -3.85412e-09 -2.04994e-08 -6.39557e-09
          -6.20393e-08 -4.57027e-09 -6.24081e-09 -1.24513e-08 -3.26747e-08 -4.7644e-09 -2.33607e-09 -1.26753e-09 -1.1688e-09 -1.25686e-09 -8.62666e-09 -5.90826e-09
          -4.13589e-09 -2.20174e-08 -6.18829e-09 -5.55843e-08 -7.57238e-09 -1.0779e-08 -1.72725e-08 -3.46441e-08 -6.02128e-09 -7.24819e-10 -5.38823e-10 -4.00673e-10
          -4.02397e-10 -2.37888e-09 -2.5357e-09 -2.06701e-09 -1.27496e-08 -6.39656e-09 -3.23439e-08 -1.38636e-08 -1.21361e-08 -1.38293e-08 -1.92744e-08 -3.23278e-09
        </DataArray>
        <DataArray type="Float32" Name="z[0]" NumberOfComponents="1" format="ascii">
          0.150578 0.150579 0.15058 0.150582 0.150582 0.150583 0.150584 0.150585 0.150585 0.150586 0.150587 0.150588
          0.150589 0.150591 0.150596 0.150581 0.150582 0.150583 0.150585 0.150586 0.150587 0.150587 0.150588 0.150588
          0.150589 0.15059 0.150591 0.150593 0.150595 0.150599 0.150584 0.150585 0.150587 0.150588 0.150589 0.15059
          0.15059 0.150591 0.150592 0.150593 0.150593 0.150595 0.150596 0.150598 0.150602 0.150588 0.150589 0.15059
          0.150591 0.150592 0.150593 0.150594 0.150594 0.150595 0.150596 0.150597 0.150598 0.150599 0.150601 0.150605
          0.150591 0.150592 0.150593 0.150594 0.150595 0.150596 0.150597 0.150597 0.150598 0.150599 0.1506 0.150601
          0.150602 0.150604 0.150609 0.150594 0.150595 0.150596 0.150597 0.150598 0.150599 0.1506 0.173727 0.150601