<?xml version="1.0"?>
<VTKFile type="UnstructuredGrid" version="0.1" byte_order="LittleEndian">
  <UnstructuredGrid>
    <Piece NumberOfCells="360" NumberOfPoints="800">
      <CellData Scalars="pressure[0]">
        <DataArray type="Float32" Name="pressure[0]" NumberOfComponents="1" format="ascii">
          2.10632e+07 2.10778e+07 2.17238e+07 2.23917e+07 2.27744e+07 2.31915e+07 2.33212e+07 2.33694e+07 2.34282e+07 2.34929e+07 2.36712e+07 2.39663e+07
          2.41849e+07 2.47905e+07 2.55172e+07 2.11078e+07 2.11219e+07 2.18356e+07 2.25387e+07 2.29556e+07 2.33706e+07 2.34655e+07 2.35031e+07 2.35634e+07
          2.3636e+07 2.38822e+07 2.41801e+07 2.43586e+07 2.49817e+07 2.56827e+07 2.11713e+07 2.12099e+07 2.19275e+07 2.26868e+07 2.30597e+07 2.3449e+07
          2.35627e+07 2.36172e+07 2.36949e+07 2.37934e+07 2.41248e+07 2.44618e+07 2.46415e+07 2.52211e+07 2.58911e+07 2.12933e+07 2.13393e+07 2.17942e+07
          2.28221e+07 2.31928e+07 2.35695e+07 2.36725e+07 2.37217e+07 2.38391e+07 2.39894e+07 2.44305e+07 2.48253e+07 2.50045e+07 2.55068e+07 2.61496e+07
          2.14252e+07 2.14483e+07 1.98041e+07 2.29238e+07 2.33914e+07 2.37871e+07 2.38534e+07 2.38895e+07 2.40736e+07 2.43484e+07 2.48097e+07 2.51777e+07
          2.53609e+07 2.58299e+07 2.64039e+07 2.16286e+07 2.16716e+07 2.23055e+07 2.3465e+07 2.37974e+07 2.40513e+07 2.40931e+07 2.41286e+07 2.43671e+07
          2.47856e+07 2.52505e+07 2.54941e+07 2.5692e+07 2.61548e+07 2.66887e+07 2.18911e+07 2.1942e+07 2.30435e+07 2.39485e+07 2.41583e+07 2.43301e+07
          2.43623e+07 2.4387e+07 2.46217e+07 2.51974e+07 2.56627e+07 2.57746e+07 2.59636e+07 2.65068e+07 2.70837e+07 2.22699e+07 2.23252e+07 2.34579e+07
          2.43005e+07 2.44925e+07 2.46156e+07 2.46507e+07 2.47076e+07 2.4976e+07 2.5554e+07 2.59416e+07 2.60305e+07 2.6283e+07 2.68721e+07 2.7628e+07
          2.28222e+07 2.28854e+07 2.38009e+07 2.45821e+07 2.48013e+07 2.48962e+07 2.49578e+07 2.51496e+07 2.54653e+07 2.59852e+07 2.62397e+07 2.62815e+07
          2.65401e+07 2.72899e+07 2.81721e+07 2.34926e+07 2.35959e+07 2.41009e+07 2.46876e+07 2.50613e+07 2.51415e+07 2.52796e+07 2.57863e+07 2.60461e+07
          2.64272e+07 2.66089e+07 2.66459e+07 2.6922e+07 2.77184e+07 2.84976e+07 2.43005e+07 2.44198e+07 2.46685e+07 2.50131e+07 2.52829e+07 2.53387e+07
          2.55477e+07 2.64073e+07 2.6621e+07 2.68539e+07 2.69933e+07 2.7043e+07 2.72868e+07 2.80862e+07 2.87388e+07 2.50398e+07 2.51104e+07 2.52193e+07
          2.53855e+07 2.55172e+07 2.5529e+07 2.58166e+07 2.70572e+07 2.71829e+07 2.73017e+07 2.73937e+07 2.74564e+07 2.77109e+07 2.8465e+07 2.89979e+07
          2.56001e+07 2.56491e+07 2.56852e+07 2.58881e+07 2.60347e+07 2.60897e+07 2.68857e+07 2.76291e+07 2.76688e+07 2.77778e+07 2.78623e+07 2.79788e+07
          2.82259e+07 2.88664e+07 2.97127e+07 2.60435e+07 2.60954e+07 2.61635e+07 2.65038e+07 2.67254e+07 2.70449e+07 2.76794e+07 2.82642e+07 2.83119e+07
          2.83304e+07 2.83335e+07 2.85013e+07 2.96489e+07 3.03486e+07 3.01655e+07 2.63939e+07 2.64423e+07 2.67228e+07 2.71998e+07 2.79335e+07 2.80374e+07
          2.8451e+07 2.88181e+07 2.88687e+07 2.89392e+07 2.9076e+07 2.99228e+07 3.06954e+07 3.08746e+07 3.07195e+07 2.67624e+07 2.68036e+07 2.72929e+07
          2.78643e+07 2.85618e+07 2.86501e+07 2.89605e+07 2.91762e+07 2.92285e+07 2.93103e+07 2.9632e+07 3.04727e+07 3.11047e+07 3.14518e+07 3.12473e+07
          2.7691e+07 2.77235e+07 2.78961e+07 2.88667e+07 2.90939e+07 2.9136e+07 2.92844e+07 2.94184e+07 2.94684e+07 2.9535e+07 2.99859e+07 3.09974e+07
          3.16774e+07 3.20156e+07 3.17323e+07 2.84402e+07 2.84968e+07 2.88902e+07 2.92521e+07 2.94108e+07 2.94563e+07 2.95672e+07 2.96626e+07 2.9715e+07
          2.97753e+07 3.03364e+07 3.1412e+07 3.21085e+07 3.23802e+07 3.22173e+07 2.87863e+07 2.88546e+07 2.91028e+07 2.94841e+07 2.96794e+07 2.97282e+07
          2.98214e+07 2.99018e+07 2.99495e+07 3.00071e+07 3.06267e+07 3.18198e+07 3.25348e+07 3.27328e+07 3.28997e+07 2.90578e+07 2.91177e+07 2.93443e+07
          2.97202e+07 2.99093e+07 2.99585e+07 3.0047e+07 3.01212e+07 3.01693e+07 3.02345e+07 3.0849e+07 3.21667e+07 3.29542e+07 3.31056e+07 3.35486e+07
          2.92804e+07 2.935e+07 2.95283e+07 2.98739e+07 3.01104e+07 3.01654e+07 3.02596e+07 3.0337e+07 3.04043e+07 3.04894e+07 3.13627e+07 3.2774e+07
          3.33417e+07 3.35031e+07 3.40507e+07 2.9492e+07 2.95648e+07 2.97222e+07 3.00591e+07 3.02999e+07 3.03612e+07 3.04704e+07 3.05589e+07 3.06488e+07
          3.07486e+07 3.1931e+07 3.33987e+07 3.37444e+07 3.39452e+07 3.45397e+07 2.96818e+07 2.97472e+07 2.99396e+07 3.02947e+07 3.04893e+07 3.05611e+07
          3.06904e+07 3.07934e+07 3.09115e+07 3.10382e+07 3.24097e+07 3.39107e+07 3.42057e+07 3.4433e+07 3.4884e+07 2.9852e+07 2.99137e+07 3.00807e+07
          3.04364e+07 3.06881e+07 3.07619e+07 3.09081e+07 3.10288e+07 3.11745e+07 3.13479e+07 3.2941e+07 3.43528e+07 3.46816e+07 3.48857e+07 3.51858e+07
        </DataArray>
        <DataArray type="Float32" Name="pressure[1]" NumberOfComponents="1" format="ascii">
          2.10632e+07 2.10778e+07 2.17238e+07 2.23917e+07 2.27744e+07 2.31915e+07 2.33212e+07 2.33694e+07 2.34282e+07 2.34929e+07 2.36712e+07 2.39663e+07
          2.41849e+07 2.47905e+07 2.55172e+07 2.11078e+07 2.11219e+07 2.18356e+07 2.25387e+07 2.29556e+07 2.33706e+07 2.34655e+07 2.35031e+07 2.35634e+07
          2.3636e+07 2.38822e+07 2.41801e+07 2.43586e+07 2.49817e+07 2.56827e+07 2.11713e+07 2.12099e+07 2.19275e+07 2.26868e+07 2.30597e+07 2.3449e+07
          2.35627e+07 2.36172e+07 2.36949e+07 2.37934e+07 2.41248e+07 2.44618e+07 2.46415e+07 2.52211e+07 2.58911e+07 2.12933e+07 2.13393e+07 2.17942e+07
          2.28221e+07 2.31928e+07 2.35695e+07 2.36725e+07 2.37217e+07 2.38391e+07 2.39894e+07 2.44305e+07 2.48253e+07 2.50045e+07 2.55068e+07 2.61496e+07
          2.14252e+07 2.14483e+07 1.98041e+07 2.29238e+07 2.33914e+07 2.37871e+07 2.38534e+07 2.38895e+07 2.40736e+07 2.43484e+07 2.48097e+07 2.51777e+07
          2.53609e+07 2.58299e+07 2.64039e+07 2.16286e+07 2.16716e+07 2.23055e+07 2.3465e+07 2.37974e+07 2.40513e+07 2.40931e+07 2.41286e+07 2.43671e+07
          2.47856e+07 2.52505e+07 2.54941e+07 2.5692e+07 2.61548e+07 2.66887e+07 2.18911e+07 2.1942e+07 2.30435e+07 2.39485e+07 2.41583e+07 2.43301e+07
          2.43623e+07 2.4387e+07 2.46217e+07 2.51974e+07 2.56627e+07 2.57746e+07 2.59636e+07 2.65068e+07 2.70837e+07 2.22699e+07 2.23252e+07 2.34579e+07
          2.43005e+07 2.44925e+07 2.46156e+07 2.46507e+07 2.47076e+07 2.4976e+07 2.5554e+07 2.59416e+07 2.60305e+07 2.6283e+07 2.68721e+07 2.7628e+07
          2.28222e+07 2.28854e+07 2.38009e+07 2.45821e+07 2.48013e+07 2.48962e+07 2.49578e+07 2.51496e+07 2.54653e+07 2.59852e+07 2.62397e+07 2.62815e+07
          2.65401e+07 2.72899e+07 2.81721e+07 2.34926e+07 2.35959e+07 2.41009e+07 2.46876e+07 2.50613e+07 2.51415e+07 2.52796e+07 2.57863e+07 2.60461e+07
          2.64272e+07 2.66089e+07 2.66459e+07 2.6922e+07 2.77184e+07 2.84976e+07 2.43005e+07 2.44198e+07 2.46685e+07 2.50131e+07 2.52829e+07 2.53387e+07
          2.55477e+07 2.64073e+07 2.6621e+07 2.68539e+07 2.69933e+07 2.7043e+07 2.72868e+07 2.80862e+07 2.87388e+07 2.50398e+07 2.51104e+07 2.52193e+07
          2.53855e+07 2.55172e+07 2.5529e+07 2.58166e+07 2.70572e+07 2.71829e+07 2.73017e+07 2.73937e+07 2.74564e+07 2.77109e+07 2.8465e+07 2.89979e+07
          2.56001e+07 2.56491e+07 2.56852e+07 2.58881e+07 2.60347e+07 2.60897e+07 2.68857e+07 2.76291e+07 2.76688e+07 2.77778e+07 2.78623e+07 2.79788e+07
          2.82259e+07 2.88664e+07 2.97127e+07 2.60435e+07 2.60954e+07 2.61635e+07 2.65038e+07 2.67254e+07 2.70449e+07 2.76794e+07 2.82642e+07 2.83119e+07
          2.83304e+07 2.83335e+07 2.85013e+07 2.96489e+07 3.03486e+07 3.01655e+07 2.63939e+07 2.64423e+07 2.67228e+07 2.71998e+07 2.79335e+07 2.80374e+07
          2.8451e+07 2.88181e+07 2.88687e+07 2.89392e+07 2.9076e+07 2.99228e+07 3.06954e+07 3.08746e+07 3.07195e+07 2.67624e+07 2.68036e+07 2.72929e+07
          2.78643e+07 2.85618e+07 2.86501e+07 2.89605e+07 2.91762e+07 2.92285e+07 2.93103e+07 2.9632e+07 3.04727e+07 3.11047e+07 3.14518e+07 3.12473e+07
          2.7691e+07 2.77235e+07 2.78961e+07 2.88667e+07 2.90939e+07 2.9136e+07 2.92844e+07 2.94184e+07 2.94684e+07 2.9535e+07 2.99859e+07 3.09974e+07
          3.16774e+07 3.20156e+07 3.17323e+07 2.84402e+07 2.84968e+07 2.88902e+07 2.92521e+07 2.94108e+07 2.94563e+07 2.95672e+07 2.96626e+07 2.9715e+07
          2.97753e+07 3.03364e+07 3.1412e+07 3.21085e+07 3.23802e+07 3.22173e+07 2.87863e+07 2.88546e+07 2.91028e+07 2.94841e+07 2.96794e+07 2.97282e+07
          2.98214e+07 2.99018e+07 2.99495e+07 3.00071e+07 3.06267e+07 3.18198e+07 3.25348e+07 3.27328e+07 3.28997e+07 2.90578e+07 2.91177e+07 2.93443e+07
          2.97202e+07 2.99093e+07 2.99585e+07 3.0047e+07 3.01212e+07 3.01693e+07 3.02345e+07 3.0849e+07 3.21667e+07 3.29542e+07 3.31056e+07 3.35486e+07
          2.92804e+07 2.935e+07 2.95283e+07 2.98739e+07 3.01104e+07 3.01654e+07 3.02596e+07 3.0337e+07 3.04043e+07 3.04894e+07 3.13627e+07 3.2774e+07
          3.33417e+07 3.35031e+07 3.40507e+07 2.9492e+07 2.95648e+07 2.97222e+07 3.00591e+07 3.02999e+07 3.03612e+07 3.04704e+07 3.05589e+07 3.06488e+07
          3.07486e+07 3.1931e+07 3.33987e+07 3.37444e+07 3.39452e+07 3.45397e+07 2.96818e+07 2.97472e+07 2.99396e+07 3.02947e+07 3.04893e+07 3.05611e+07
          3.06904e+07 3.07934e+07 3.09115e+07 3.10382e+07 3.24097e+07 3.39107e+07 3.42057e+07 3.4433e+07 3.4884e+07 2.9852e+07 2.99137e+07 3.00807e+07
          3.04364e+07 3.06881e+07 3.07619e+07 3.09081e+07 3.10288e+07 3.11745e+07 3.13479e+07 3.2941e+07 3.43528e+07 3.46816e+07 3.48857e+07 3.51858e+07
        </DataArray>
        <DataArray type="Float32" Name="pressure[2]" NumberOfComponents="1" format="ascii">
          2.10632e+07 2.10778e+07 2.17238e+07 2.23917e+07 2.27744e+07 2.31915e+07 2.33212e+07 2.33694e+07 2.34282e+07 2.34929e+07 2.36712e+07 2.39663e+07
          2.41849e+07 2.47905e+07 2.55172e+07 2.11078e+07 2.11219e+07 2.18356e+07 2.25387e+07 2.29556e+07 2.33706e+07 2.34655e+07 2.35031e+07 2.35634e+07
          2.3636e+07 2.38822e+07 2.41801e+07 2.43586e+07 2.49817e+07 2.56827e+07 2.11713e+07 2.12099e+07 2.19275e+07 2.26868e+07 2.30597e+07 2.3449e+07
          2.35627e+07 2.36172e+07 2.36949e+07 2.37934e+07 2.41248e+07 2.44618e+07 2.46415e+07 2.52211e+07 2.58911e+07 2.12933e+07 2.13393e+07 2.17942e+07
          2.28221e+07 2.31928e+07 2.35695e+07 2.36725e+07 2.37217e+07 2.38391e+07 2.39894e+07 2.44305e+07 2.48253e+07 2.50045e+07 2.55068e+07 2.61496e+07
          2.14252e+07 2.14483e+07 1.98041e+07 2.29238e+07 2.33914e+07 2.37871e+07 2.38534e+07 2.38895e+07 2.40736e+07 2.43484e+07 2.48097e+07 2.51777e+07
          2.53609e+07 2.58299e+07 2.64039e+07 2.16286e+07 2.16716e+07 2.23055e+07 2.3465e+07 2.37974e+07 2.40513e+07 2.40931e+07 2.41286e+07 2.43671e+07
          2.47856e+07 2.52505e+07 2.54941e+07 2.5692e+07 2.61548e+07 2.66887e+07 2.18911e+07 2.1942e+07 2.30435e+07 2.39485e+07 2.41583e+07 2.43301e+07
          2.43623e+07 2.4387e+07 2.46217e+07 2.51974e+07 2.56627e+07 2.57746e+07 2.59636e+07 2.65068e+07 2.70837e+07 2.22699e+07 2.23252e+07 2.34579e+07
          2.43005e+07 2.44925e+07 2.46156e+07 2.46507e+07 2.47076e+07 2.4976e+07 2.5554e+07 2.59416e+07 2.60305e+07 2.6283e+07 2.68721e+07 2.7628e+07
          2.28222e+07 2.28854e+07 2.38009e+07 2.45821e+07 2.48013e+07 2.48962e+07 2.49578e+07 2.51496e+07 2.54653e+07 2.59852e+07 2.62397e+07 2.62815e+07
          2.65401e+07 2.72899e+07 2.81721e+07 2.34926e+07 2.35959e+07 2.41009e+07 2.46876e+07 2.50613e+07 2.51415e+07 2.52796e+07 2.57863e+07 2.60461e+07
          2.64272e+07 2.66089e+07 2.66459e+07 2.6922e+07 2.77184e+07 2.84976e+07 2.43005e+07 2.44198e+07 2.46685e+07 2.50131e+07 2.52829e+07 2.53387e+07
          2.55477e+07 2.64073e+07 2.6621e+07 2.68539e+07 2.69933e+07 2.7043e+07 2.72868e+07 2.80862e+07 2.87388e+07 2.50398e+07 2.51104e+07 2.52193e+07
          2.53855e+07 2.55172e+07 2.5529e+07 2.58166e+07 2.70572e+07 2.71829e+07 2.73017e+07 2.73937e+07 2.74564e+07 2.77109e+07 2.8465e+07 2.89979e+07
          2.56001e+07 2.56491e+07 2.56852e+07 2.58881e+07 2.60347e+07 2.60897e+07 2.68857e+07 2.76291e+07 2.76688e+07 2.77778e+07 2.78623e+07 2.79788e+07
          2.82259e+07 2.88664e+07 2.97127e+07 2.60435e+07 2.60954e+07 2.61635e+07 2.65038e+07 2.67254e+07 2.70449e+07 2.76794e+07 2.82642e+07 2.83119e+07
          2.83304e+07 2.83335e+07 2.85013e+07 2.96489e+07 3.03486e+07 3.01655e+07 2.63939e+07 2.64423e+07 2.67228e+07 2.71998e+07 2.79335e+07 2.80374e+07
          2.8451e+07 2.88181e+07 2.88687e+07 2.89392e+07 2.9076e+07 2.99228e+07 3.06954e+07 3.08746e+07 3.07195e+07 2.67624e+07 2.68036e+07 2.72929e+07
          2.78643e+07 2.85618e+07 2.86501e+07 2.89605e+07 2.91762e+07 2.92285e+07 2.93103e+07 2.9632e+07 3.04727e+07 3.11047e+07 3.14518e+07 3.12473e+07
          2.7691e+07 2.77235e+07 2.78961e+07 2.88667e+07 2.90939e+07 2.9136e+07 2.92844e+07 2.94184e+07 2.94684e+07 2.9535e+07 2.99859e+07 3.09974e+07
          3.16774e+07 3.20156e+07 3.17323e+07 2.84402e+07 2.84968e+07 2.88902e+07 2.92521e+07 2.94108e+07 2.94563e+07 2.95672e+07 2.96626e+07 2.9715e+07
          2.97753e+07 3.03364e+07 3.1412e+07 3.21085e+07 3.23802e+07 3.22173e+07 2.87863e+07 2.88546e+07 2.91028e+07 2.94841e+07 2.96794e+07 2.97282e+07
          2.98214e+07 2.99018e+07 2.99495e+07 3.00071e+07 3.06267e+07 3.18198e+07 3.25348e+07 3.27328e+07 3.28997e+07 2.90578e+07 2.91177e+07 2.93443e+07
          2.97202e+07 2.99093e+07 2.99585e+07 3.0047e+07 3.01212e+07 3.01693e+07 3.02345e+07 3.0849e+07 3.21667e+07 3.29542e+07 3.31056e+07 3.35486e+07
          2.92804e+07 2.935e+07 2.95283e+07 2.98739e+07 3.01104e+07 3.01654e+07 3.02596e+07 3.0337e+07 3.04043e+07 3.04894e+07 3.13627e+07 3.2774e+07
          3.33417e+07 3.35031e+07 3.40507e+07 2.9492e+07 2.95648e+07 2.97222e+07 3.00591e+07 3.02999e+07 3.03612e+07 3.04704e+07 3.05589e+07 3.06488e+07
          3.07486e+07 3.1931e+07 3.33987e+07 3.37444e+07 3.39452e+07 3.45397e+07 2.96818e+07 2.97472e+07 2.99396e+07 3.02947e+07 3.04893e+07 3.05611e+07
          3.06904e+07 3.07934e+07 3.09115e+07 3.10382e+07 3.24097e+07 3.39107e+07 3.42057e+07 3.4433e+07 3.4884e+07 2.9852e+07 2.99137e+07 3.00807e+07
          3.04364e+07 3.06881e+07 3.07619e+07 3.09081e+07 3.10288e+07 3.11745e+07 3.13479e+07 3.2941e+07 3.43528e+07 3.46816e+07 3.48857e+07 3.51858e+07
        </DataArray>
        <DataArray type="Float32" Name="velocity[0]" NumberOfComponents="1" format="ascii">
          -2.50343e-09 4.08271e-08 1.64473e-10 -4.20982e-09 -3.73395e-10 -1.44857e-09 -5.33106e-10 1.17668e-09 1.86357e-09 -3.15539e-10 -1.8211e-09 -2.486e-09
          -1.6826e-09 -5.48271e-10 -2.55073e-09 -3.10275e-08 1.47592e-07 3.64416e-10 -1.87916e-08 -5.03377e-11 1.58904e-09 7.68321e-09 5.35679e-09 4.09542e-09
          -2.24376e-09 -3.8172e-09 -1.0745e-08 -6.5525e-09 -1.68663e-09 -6.77116e-09 -3.42006e-08 1.93581e-07 1.09536e-09 1.5239e-09 4.39027e-10 4.56511e-09
          1.34913e-08 9.89791e-09 1.96842e-09 -5.81452e-09 -4.52911e-09 -2.71987e-08 -9.4373e-09 -3.63377e-09 -1.01621e-08 -1.1685e-08 1.80423e-07 7.2958e-09
          8.24906e-08 -1.6121e-09 -8.94465e-09 -6.07668e-09 -4.37714e-10 -4.25085e-09 -1.29419e-08 -5.90299e-09 -4.70449e-08 -6.73847e-09 -5.33719e-09 -1.38849e-08
          -9.35091e-08 -3.28321e-08 -2.83182e-10 -1.28951e-07 -1.47561e-08 -5.78791e-08 -6.50293e-08 -4.6709e-08 -6.9182e-09 -1.33152e-08 -8.18157e-09 -7.91906e-08
          -3.40587e-09 -4.89683e-09 -1.71297e-08 -1.84188e-07 -2.29542e-07 -8.19763e-09 -2.73209e-07 -3.28256e-08 -1.79991e-07 -1.02486e-07 -1.26237e-07 -4.49104e-09
          -5.88261e-09 -1.22546e-08 -1.14847e-07 -2.00326e-09 -3.90518e-09 -1.93108e-08 -1.84793e-07 -1.98947e-07 -2.43212e-09 -9.14777e-08 -3.27761e-08 -3.45343e-07
          -9.52451e-08 -1.49386e-07 -3.91216e-09 -2.62509e-09 -1.53446e-08 -1.40516e-07 -1.75746e-09 -3.86116e-09 -2.08215e-08 -1.67586e-07 -1.81869e-07 -1.99345e-09
          -1.63848e-08 -2.13829e-08 -4.37935e-07 -6.47767e-08 -1.57334e-07 -4.85072e-09 -2.35313e-09 -1.7819e-08 -1.60033e-07 -1.48357e-09 -4.00451e-09 -2.25244e-08
          -1.5075e-07 -1.63286e-07 -2.39028e-09 -2.49165e-09 -1.42001e-08 -4.38739e-07 -2.43266e-08 -2.38143e-07 -4.75699e-09 -2.85831e-09 -3.09833e-08 -1.57945e-07
          -1.46769e-09 -3.67502e-09 -2.47654e-08 -1.22955e-07 -1.50506e-07 -9.11351e-09 -5.56102e-10 -1.01362e-08 -4.01282e-07 -7.71712e-09 -3.5077e-07 -5.15097e-09
          -3.34342e-09 -5.38461e-08 -1.36957e-07 -2.45114e-09 -3.20446e-09 -2.69784e-08 -9.10713e-08 -1.43857e-07 -2.02157e-08 -1.41303e-09 -1.08346e-08 -3.53381e-07
          -2.66488e-09 -4.40011e-07 -1.18383e-08 -4.97592e-09 -6.97194e-08 -1.13999e-07 -6.43468e-09 -3.75273e-09 -2.89263e-08 -7.31477e-08 -1.38942e-07 -2.80923e-08
          -1.44162e-09 -3.4047e-08 -2.89667e-07 -2.29859e-09 -4.22778e-07 -4.62047e-08 -9.5489e-09 -7.45046e-08 -8.41013e-08 -2.05601e-08 -6.82727e-09 -3.09112e-08
          -6.68795e-08 -1.41721e-07 -2.56064e-08 -3.12617e-09 -5.80089e-08 -2.2252e-07 -2.46805e-09 -4.1102e-07 -6.92546e-08 -2.12157e-08 -6.76806e-08 -4.18856e-08
          -3.35162e-08 -1.89803e-08 -3.32969e-08 -6.40482e-08 -1.48363e-07 -1.54071e-08 -6.43527e-09 -4.83708e-08 -2.076e-07 -2.10348e-09 -4.52794e-07 -8.22821e-08
          -2.75936e-08 -4.04668e-08 -1.26351e-08 -3.58642e-08 -3.63185e-08 -3.34968e-08 -6.09471e-08 -1.39558e-07 -9.57403e-09 -9.9931e-09 -3.51828e-08 -2.24779e-07
          -1.66752e-09 -4.51275e-07 -1.03221e-07 -2.76071e-08 -1.86555e-08 -5.79536e-09 -3.65345e-08 -5.08438e-08 -3.04733e-08 -6.39063e-08 -1.01747e-07 -9.56583e-09
          -1.06235e-08 -3.99945e-08 -2.37848e-07 -2.0436e-09 -3.95176e-07 -1.08198e-07 -3.30905e-08 -1.06321e-08 -6.38246e-09 -4.14329e-08 -7.14088e-08 -2.59063e-08
          -6.96884e-08 -6.30533e-08 -8.82112e-09 -9.28564e-09 -5.89513e-08 -2.1781e-07 -3.66068e-09 -3.17334e-07 -1.10943e-07 -5.10852e-08 -4.04128e-09 -5.73683e-09
          -3.35207e-08 -1.04234e-07 -2.06939e-08 -7.06894e-08 -4.58642e-08 -4.07379e-09 -5.41256e-09 -8.61868e-08 -1.57467e-07 -5.35447e-09 -2.46919e-07 -1.22746e-07
          -8.04892e-08 -2.81838e-09 -3.82056e-09 -2.1585e-08 -1.35365e-07 -1.62103e-08 -6.4579e-08 -3.22174e-08 -2.05056e-09 -1.72723e-09 -1.048e-07 -9.92209e-08
          -5.61997e-09 -1.80406e-07 -1.25172e-07 -1.29841e-07 -1.64171e-09 -3.13937e-09 -2.80987e-08 -1.54291e-07 -1.42325e-08 -5.3897e-08 -2.1684e-08 -1.79129e-09
          -7.3975e-10 -1.09985e-07 -5.57453e-08 -4.66555e-09 -1.33232e-07 -8.2017e-08 -2.29075e-07 -2.90433e-09 -4.46376e-09 -4.17545e-08 -1.63397e-07 -1.53553e-08
          -4.12554e-08 -1.45699e-08 -1.57012e-09 -1.74914e-10 -1.01289e-07 -2.88418e-08 -3.98377e-09 -1.05459e-07 -3.46707e-08 -3.20355e-07 -4.57174e-09 -8.22534e-09
          -5.08053e-08 -1.70593e-07 -1.76791e-08 -2.59486e-08 -7.42483e-09 -2.46415e-09 -9.39148e-10 -7.45064e-08 -1.9518e-08 -3.91288e-09 -1.00837e-07 -1.89615e-08
          -3.39966e-07 -4.1769e-09 -1.58182e-08 -5.55956e-08 -1.77946e-07 -2.1963e-08 -1.21097e-08 -2.96623e-09 -1.10806e-09 -6.18707e-10 -3.71457e-08 -1.45808e-08
          -3.23021e-09 -1.07478e-07 -1.53685e-08 -2.93588e-07 -5.80012e-09 -2.72809e-08 -7.28202e-08 -1.85289e-07 -2.86971e-08 -3.20797e-09 -6.68036e-10 2.47167e-10
          9.5189e-11 -8.78126e-09 -5.56978e-09 -1.1864e-09 -5.49864e-08 -7.17351e-09 -1.27068e-07 -3.8271e-09 -1.65501e-08 -4.34599e-08 -9.52021e-08 -1.61163e-08
        </DataArray>
        <DataArray type="Float32" Name="velocity[1]" NumberOfComponents="1" format="ascii">
          3.89063e-25 6.47897e-24 1.0243e-25 -6.54256e-25 5.803e-26 0 8.28509e-26 -1.35159e-25 6.99036e-26 5.45105e-24 -3.56435e-24 5.13934e-26
          2.32736e-24 -9.30655e-25 3.95948e-25 4.04391e-24 1.01427e-23 9.35884e-26 -1.61192e-24 -2.03088e-25 7.29859e-24 1.10233e-24 2.78181e-25 -6.90392e-24
          -1.71302e-25 0 -5.00366e-26 5.3503e-26 3.84718e-28 2.59491e-25 -3.55077e-24 -1.34563e-23 -1.80934e-24 4.76918e-24 -2.04337e-25 0
          3.68388e-25 -2.91628e-25 -3.87799e-25 0 6.74761e-24 -1.05262e-23 0 1.07113e-24 -2.68068e-25 1.42502e-25 1.25554e-23 -1.62084e-24
          -8.05499e-24 4.30564e-25 1.02444e-23 -2.06543e-23 2.50835e-23 -3.69681e-24 1.11393e-24 3.29024e-24 -4.34944e-24 2.97312e-24 -1.24553e-24 9.33524e-25
          -1.11412e-25 -6.83952e-23 6.34571e-24 1.17725e-23 -4.37577e-25 -6.004e-24 1.25447e-25 -1.0048e-25 7.57663e-27 -6.13775e-24 3.68432e-24 -7.1339e-24
          3.55516e-27 1.22449e-25 -1.42768e-24 -1.48988e-25 7.253e-24 -6.79923e-25 8.01919e-24 1.7904e-25 -1.36187e-23 0 -1.31075e-25 6.57671e-26
          3.88237e-25 -3.85132e-25 5.33409e-24 -1.37607e-24 8.12678e-25 1.42701e-24 -1.16058e-24 1.37534e-24 0 1.02563e-23 -9.54158e-25 -3.12709e-23
          -9.69361e-26 -9.89966e-26 -3.21415e-24 -1.14659e-27 3.13588e-27 2.75343e-27 3.2672e-26 -2.56941e-29 -1.57345e-24 -1.94824e-25 1.33679e-23 1.50311e-24
          3.29224e-24 -5.81836e-26 3.13135e-23 -5.93004e-26 -4.08195e-26 -4.60218e-26 -5.31075e-26 -3.64631e-24 -1.20584e-23 1.04809e-27 -3.4951e-25 1.83811e-24
          -1.47775e-24 -9.49044e-24 -9.51001e-26 -1.91989e-24 -3.72635e-25 5.20225e-24 0 0 -9.853e-25 -9.88273e-28 1.13408e-24 2.67713e-24
          1.61834e-27 4.82187e-26 -3.39548e-28 -1.10761e-23 9.03856e-25 1.33719e-24 -1.30176e-25 -2.19142e-24 6.52103e-24 -1.20768e-23 9.59925e-24 1.0025e-24
          -5.04006e-26 -9.17929e-25 2.89459e-24 -7.96857e-25 0 -2.01073e-24 4.46817e-24 1.20868e-25 7.17759e-25 -1.30544e-25 1.70934e-24 -3.62618e-27
          -8.33652e-24 8.55218e-24 9.4079e-25 2.02181e-25 6.39054e-25 8.04274e-24 2.01406e-24 -2.63514e-25 1.31757e-25 -5.24696e-24 7.32781e-25 -5.10988e-25
          -9.5757e-26 2.7118e-24 -1.92778e-23 6.66781e-26 -6.94779e-24 -4.50342e-24 -5.0789e-25 -8.98381e-25 3.84716e-24 -1.80787e-24 1.06956e-24 -1.77528e-25
          5.14618e-24 1.0623e-23 0 -2.14441e-25 4.42499e-25 3.97753e-24 -4.05956e-26 5.12636e-24 8.18057e-25 -6.23745e-29 -4.68018e-24 -1.47518e-24
          3.58072e-25 -7.1491e-25 7.84981e-29 -3.39971e-25 1.15593e-27 8.10944e-25 -5.99623e-25 2.14211e-27 1.18979e-23 -1.61197e-26 1.37164e-24 2.90241e-24
          3.10592e-24 4.68028e-24 3.35418e-24 -4.91366e-24 -2.57666e-28 -2.5218e-24 -4.80631e-24 -1.00365e-23 -3.66063e-28 6.49975e-25 -1.00553e-25 1.17813e-27
          -5.14372e-26 -5.25493e-24 1.62348e-24 0 0 4.88468e-25 4.06129e-24 -4.69401e-25 4.7358e-24 0 4.26184e-24 0
          -7.47946e-25 8.47883e-25 1.18988e-27 1.09886e-25 -7.11385e-24 -2.50499e-28 -4.00773e-28 -5.43368e-28 4.37508e-24 -9.10441e-28 -1.30914e-24 -2.21449e-24
          2.30668e-28 1.75146e-24 1.11311e-28 5.27771e-26 2.09758e-24 -1.10273e-23 0 -1.15597e-23 0 4.9282e-28 3.21541e-24 -3.9888e-24
          -1.89351e-24 5.04535e-28 1.40432e-24 0 4.02378e-24 0 6.95616e-25 2.21898e-24 5.1653e-24 1.21992e-25 -5.95864e-24 -5.44399e-24
          -2.30939e-24 1.8841e-25 5.93939e-26 -2.29674e-28 -1.84844e-24 -1.11494e-24 4.61394e-24 -2.28147e-24 2.53685e-24 -2.11798e-24 7.57494e-25 9.60606e-24
          -8.0699e-26 -4.37811e-24 1.04218e-23 5.78247e-24 -3.47966e-24 7.62173e-26 9.74268e-25 -6.7828e-28 1.09696e-24 1.10552e-29 -4.17374e-24 9.05317e-25
          -1.92617e-24 9.63181e-26 -2.96413e-24 -1.35448e-25 -5.90753e-24 -5.31539e-24 1.00642e-23 2.85289e-25 3.72974e-24 1.14752e-24 -3.859e-25 -9.04484e-25
          -1.11301e-24 6.70849e-25 0 -4.28263e-26 -1.39953e-24 4.8917e-24 -8.59872e-24 8.59815e-24 -6.10023e-24 1.66338e-27 0 0
          2.59124e-25 -9.01028e-28 1.4581e-24 -1.26585e-24 -1.33082e-24 1.2274e-24 -2.06123e-24 -9.0163e-25 -1.40049e-24 2.73098e-26 6.44754e-25 -3.99188e-24
          1.42485e-23 -2.71812e-25 -6.81227e-24 4.8484e-25 9.95491e-25 -2.90718e-28 -8.84788e-25 -3.87728e-29 -4.45986e-29 1.25738e-25 -3.04335e-24 5.34757e-25
          -1.3325e-25 1.08874e-23 -4.50801e-24 0 -2.88148e-25 -9.03906e-25 6.92903e-24 -7.95991e-25 0 -4.98651e-25 -1.03771e-28 -4.05284e-25
          6.87558e-25 -1.36472e-24 -2.29635e-24 -3.68749e-25 -2.82728e-24 1.11485e-24 -3.09218e-23 0 3.0945e-23 -2.27231e-23 1.87935e-23 4.72472e-25
        </DataArray>
        <DataArray type="Float32" Name="velocity[2]" NumberOfComponents="1" format="ascii">
          -2.70058e-10 5.54369e-09 -3.5819e-09 -4.05946e-09 -3.07438e-09 -3.1094e-09 -2.82156e-09 -2.51375e-09 -2.50065e-09 -2.93639e-09 -3.02436e-09 -2.82844e-09
          -2.37757e-09 -1.91825e-09 -1.30102e-09 -3.7226e-09 2.62594e-08 -2.91579e-09 -5.6878e-09 -1.83099e-09 -1.72895e-09 -1.05539e-09 -1.75621e-09 -2.04621e-09
          -3.07304e-09 -3.22522e-09 -4.04241e-09 -2.702e-09 -1.50979e-09 -1.75079e-09 -7.53322e-09 3.21278e-08 -8.32913e-10 -2.26449e-09 -3.89423e-09 -3.01562e-09
          -1.24856e-09 -1.8205e-09 -3.07358e-09 -4.16473e-09 -3.7714e-09 -7.04814e-09 -3.26176e-09 -2.01575e-09 -2.36626e-09 -2.02107e-09 3.15466e-08 2.57532e-10
          1.06233e-08 -6.52093e-09 -7.07495e-09 -5.5183e-09 -3.73734e-09 -3.82973e-09 -4.87589e-09 -3.33538e-09 -9.97321e-09 -2.47839e-09 -2.33428e-09 -3.11577e-09
          -1.10082e-08 9.45155e-10 -1.08079e-09 -3.10955e-08 -1.40689e-08 -1.92319e-08 -1.75792e-08 -1.2264e-08 -4.34622e-09 -5.70791e-09 -4.81815e-09 -1.5779e-08
          -1.10415e-09 -1.56231e-09 -3.43561e-09 -3.18021e-08 -4.02318e-08 -2.7049e-09 -5.559e-08 -1.85397e-08 -4.00352e-08 -2.24462e-08 -2.55183e-08 -2.87828e-09
          -3.2774e-09 -4.33669e-09 -2.15042e-08 -8.79306e-10 -1.28106e-09 -3.71849e-09 -3.30829e-08 -3.63603e-08 -1.99291e-09 -2.08661e-08 -1.40128e-08 -6.56406e-08
          -1.77709e-08 -2.79336e-08 -2.78401e-09 -2.51539e-09 -4.75562e-09 -2.60213e-08 -7.61049e-10 -1.09114e-09 -3.86324e-09 -3.00423e-08 -3.34526e-08 -2.08147e-09
          -5.0836e-09 -6.70688e-09 -7.97502e-08 -1.40561e-08 -3.03111e-08 -2.60915e-09 -2.14619e-09 -4.73295e-09 -2.92925e-08 -9.77675e-10 -1.45846e-09 -4.3494e-09
          -2.70382e-08 -3.00579e-08 -1.98781e-09 -2.08829e-09 -4.41601e-09 -7.9928e-08 -7.73425e-09 -4.44024e-08 -1.91376e-09 -1.58745e-09 -5.83449e-09 -2.80297e-08
          -9.2854e-10 -1.33799e-09 -4.73711e-09 -2.29107e-08 -2.91093e-08 -3.6931e-09 -1.51802e-09 -3.21366e-09 -7.34702e-08 -5.39173e-09 -6.43497e-08 -1.72045e-09
          -1.35068e-09 -9.50151e-09 -2.4158e-08 -1.14933e-09 -1.27499e-09 -5.1253e-09 -1.68419e-08 -2.70255e-08 -4.89934e-09 -1.18046e-09 -2.74085e-09 -6.40592e-08
          -3.26759e-09 -7.96736e-08 -3.07561e-09 -1.45031e-09 -1.25515e-08 -2.07313e-08 -2.16749e-09 -1.34486e-09 -5.38327e-09 -1.32714e-08 -2.53641e-08 -5.65175e-09
          -6.53281e-10 -5.26483e-09 -5.11626e-08 -2.42412e-09 -7.77492e-08 -1.084e-08 -2.54668e-09 -1.38302e-08 -1.66416e-08 -5.88618e-09 -2.36011e-09 -5.83144e-09
          -1.18357e-08 -2.48212e-08 -4.58979e-09 -1.05483e-09 -1.05061e-08 -4.05442e-08 -2.93557e-09 -7.41041e-08 -1.32756e-08 -4.7845e-09 -1.31137e-08 -1.0411e-08
          -1.0155e-08 -5.80617e-09 -6.28367e-09 -1.14373e-08 -2.63682e-08 -3.23437e-09 -1.94201e-09 -9.90799e-09 -3.81554e-08 -1.43532e-09 -8.06596e-08 -1.40052e-08
          -3.34671e-09 -6.94875e-09 -3.6745e-09 -8.14776e-09 -6.96593e-09 -5.55798e-09 -1.08076e-08 -2.52491e-08 -2.96698e-09 -3.0785e-09 -7.47321e-09 -4.0631e-08
          -9.88974e-10 -8.05535e-08 -1.92959e-08 -5.72234e-09 -4.19212e-09 -2.08343e-09 -7.49102e-09 -8.80957e-09 -4.71497e-09 -1.10105e-08 -1.87958e-08 -3.79352e-09
          -3.91119e-09 -8.8489e-09 -4.31441e-08 -1.24332e-09 -7.17675e-08 -2.22444e-08 -8.72248e-09 -5.00245e-09 -4.5665e-09 -1.03952e-08 -1.31297e-08 -3.70477e-09
          -1.2161e-08 -1.14271e-08 -2.61098e-09 -2.8932e-09 -1.09479e-08 -3.94763e-08 -2.92667e-09 -5.90684e-08 -2.35048e-08 -1.23467e-08 -3.5113e-09 -3.9521e-09
          -9.76631e-09 -1.98399e-08 -2.77533e-09 -1.25254e-08 -8.50436e-09 -1.65944e-09 -2.30039e-09 -1.59821e-08 -2.9393e-08 -4.13905e-09 -4.77203e-08 -2.61726e-08
          -1.74443e-08 -3.1921e-09 -3.41856e-09 -6.54617e-09 -2.46107e-08 -2.23795e-09 -1.17321e-08 -6.75993e-09 -1.77617e-09 -1.67372e-09 -1.95961e-08 -1.94908e-08
          -4.13816e-09 -3.57235e-08 -2.72716e-08 -2.72517e-08 -3.30183e-09 -3.63076e-09 -7.64289e-09 -2.83033e-08 -2.47129e-09 -9.86738e-09 -4.69344e-09 -1.40092e-09
          -1.33285e-09 -2.06219e-08 -1.19312e-08 -3.82588e-09 -2.70149e-08 -2.0543e-08 -4.59366e-08 -3.34886e-09 -3.3987e-09 -9.37295e-09 -2.99842e-08 -3.12067e-09
          -7.75214e-09 -3.73988e-09 -1.60733e-09 -1.29143e-09 -1.95877e-08 -7.65826e-09 -3.64674e-09 -2.17804e-08 -1.032e-08 -6.04218e-08 -3.68699e-09 -4.22421e-09
          -1.15042e-08 -3.16604e-08 -3.47938e-09 -5.11863e-09 -2.53675e-09 -1.78213e-09 -1.46747e-09 -1.53635e-08 -6.68505e-09 -3.99847e-09 -2.09742e-08 -6.58026e-09
          -6.36146e-08 -4.69443e-09 -6.42264e-09 -1.28895e-08 -3.3883e-08 -4.93924e-09 -2.51496e-09 -1.36381e-09 -1.25657e-09 -1.34963e-09 -8.87541e-09 -6.10144e-09
          -4.28338e-09 -2.2622e-08 -6.37449e-09 -5.70722e-08 -7.78483e-09 -1.11051e-08 -1.78456e-08 -3.58836e-08 -6.23898e-09 -7.79577e-10 -5.79043e-10 -4.29721e-10
          -4.30399e-10 -2.4592e-09 -2.62115e-09 -2.13977e-09 -1.31244e-08 -6.58973e-09 -3.32424e-08 -1.4258e-08 -1.24957e-08 -1.42667e-08 -1.99444e-08 -3.34853e-09
        </DataArray>
        <DataArray type="Float32" Name="z[0]" NumberOfComponents="1" format="ascii">
          0.150578 0.150579 0.15058 0.150582 0.150582 0.150583 0.150584 0.150585 0.150585 0.150586 0.150587 0.150588
          0.150589 0.150591 0.150596 0.150581 0.150582 0.150583 0.150585 0.150586 0.150587 0.150587 0.150588 0.150588
          0.150589 0.15059 0.150591 0.150593 0.150595 0.150599 0.150584 0.150585 0.150587 0.150588 0.150589 0.15059
          0.15059 0.150591 0.150592 0.150593 0.150593 0.150595 0.150596 0.150598 0.150602 0.150588 0.150589 0.15059
          0.150591 0.150592 0.150593 0.150594 0.150594 0.150595 0.150596 0.150597 0.150598 0.150599 0.150601 0.150605
          0.150591 0.150592 0.150593 0.150594 0.150595 0.150596 0.150597 0.150597 0.150598 0.150599 0.1506 0.150601
          0.150602 0.150604 0.150609 0.150594 0.150595 0.150596 0.150597 0.150598 0.150599 0.1506 0.150601 0.150601