<?xml version="1.0"?>
<VTKFile type="UnstructuredGrid" version="0.1" byte_order="LittleEndian">
  <UnstructuredGrid>
    <Piece NumberOfCells="360" NumberOfPoints="800">
      <CellData Scalars="pressure[0]">
        <DataArray type="Float32" Name="pressure[0]" NumberOfComponents="1" format="ascii">
          2.10092e+07 2.10238e+07 2.16008e+07 2.22042e+07 2.25756e+07 2.30048e+07 2.31392e+07 2.31892e+07 2.32494e+07 2.33168e+07 2.35111e+07 2.38321e+07
          2.40707e+07 2.47078e+07 2.54629e+07 2.10533e+07 2.10678e+07 2.17058e+07 2.23404e+07 2.27495e+07 2.31825e+07 2.32812e+07 2.33202e+07 2.33825e+07
          2.34592e+07 2.37298e+07 2.40546e+07 2.42474e+07 2.4901e+07 2.56297e+07 2.10978e+07 2.1112e+07 2.17767e+07 2.24848e+07 2.28465e+07 2.32515e+07
          2.33703e+07 2.34282e+07 2.35097e+07 2.36169e+07 2.39831e+07 2.43523e+07 2.45424e+07 2.51462e+07 2.58417e+07 2.11737e+07 2.12173e+07 2.16487e+07
          2.26191e+07 2.297e+07 2.33574e+07 2.34645e+07 2.35177e+07 2.3646e+07 2.38168e+07 2.43065e+07 2.47259e+07 2.49133e+07 2.54387e+07 2.61065e+07
          2.13058e+07 2.13299e+07 1.97966e+07 2.27202e+07 2.31528e+07 2.35624e+07 2.36329e+07 2.36696e+07 2.38798e+07 2.4205e+07 2.46928e+07 2.50826e+07
          2.52769e+07 2.57706e+07 2.63671e+07 2.15063e+07 2.15493e+07 2.21368e+07 2.32314e+07 2.35503e+07 2.38233e+07 2.38644e+07 2.38949e+07 2.41812e+07
          2.46514e+07 2.51485e+07 2.54061e+07 2.56154e+07 2.6104e+07 2.66599e+07 2.17636e+07 2.18139e+07 2.28133e+07 2.37286e+07 2.39418e+07 2.41311e+07
          2.41658e+07 2.42317e+07 2.44848e+07 2.50892e+07 2.55775e+07 2.56928e+07 2.58919e+07 2.64659e+07 2.70694e+07 2.21336e+07 2.21878e+07 2.32831e+07
          2.40999e+07 2.42933e+07 2.44304e+07 2.45187e+07 2.45998e+07 2.48762e+07 2.54681e+07 2.58642e+07 2.59541e+07 2.622e+07 2.68418e+07 2.76371e+07
          2.26734e+07 2.27355e+07 2.36518e+07 2.44042e+07 2.46145e+07 2.4694e+07 2.49185e+07 2.5145e+07 2.54401e+07 2.59296e+07 2.617e+07 2.62095e+07
          2.64801e+07 2.72708e+07 2.82052e+07 2.33311e+07 2.34332e+07 2.39966e+07 2.46028e+07 2.499e+07 2.5179e+07 2.5541e+07 2.59141e+07 2.61117e+07
          2.64031e+07 2.65469e+07 2.65806e+07 2.68652e+07 2.77047e+07 2.85419e+07 2.42377e+07 2.43727e+07 2.46258e+07 2.50464e+07 2.53845e+07 2.55293e+07
          2.60421e+07 2.65634e+07 2.67166e+07 2.68526e+07 2.69354e+07 2.69798e+07 2.72155e+07 2.8063e+07 2.87894e+07 2.49582e+07 2.50355e+07 2.51662e+07
          2.54879e+07 2.57649e+07 2.58629e+07 2.65233e+07 2.71846e+07 2.72361e+07 2.72993e+07 2.73397e+07 2.73848e+07 2.75887e+07 2.84234e+07 2.90648e+07
          2.54841e+07 2.55421e+07 2.56038e+07 2.59188e+07 2.61918e+07 2.64309e+07 2.71692e+07 2.78337e+07 2.79229e+07 2.78071e+07 2.7823e+07 2.78834e+07
          2.85634e+07 2.96504e+07 2.98789e+07 2.58752e+07 2.59586e+07 2.60628e+07 2.64337e+07 2.72996e+07 2.74238e+07 2.80135e+07 2.84795e+07 2.85377e+07
          2.85177e+07 2.83604e+07 2.90088e+07 2.99631e+07 3.06206e+07 3.03334e+07 2.63615e+07 2.6374e+07 2.66975e+07 2.72207e+07 2.82574e+07 2.83486e+07
          2.87298e+07 2.90191e+07 2.907e+07 2.91416e+07 2.92676e+07 3.0169e+07 3.08886e+07 3.1077e+07 3.08807e+07 2.71904e+07 2.72153e+07 2.74653e+07
          2.85273e+07 2.88554e+07 2.89181e+07 2.9188e+07 2.93664e+07 2.94175e+07 2.94966e+07 2.98156e+07 3.06478e+07 3.12685e+07 3.16058e+07 3.13958e+07
          2.80238e+07 2.80612e+07 2.81856e+07 2.91421e+07 2.93201e+07 2.93594e+07 2.94914e+07 2.96093e+07 2.96587e+07 2.97245e+07 3.01637e+07 3.11481e+07
          3.18085e+07 3.21349e+07 3.18662e+07 2.86955e+07 2.8754e+07 2.91429e+07 2.94773e+07 2.9622e+07 2.96667e+07 2.97676e+07 2.98537e+07 2.99053e+07
          2.99649e+07 3.05075e+07 3.15467e+07 3.22199e+07 3.24847e+07 3.23352e+07 2.9031e+07 2.90988e+07 2.93378e+07 2.96975e+07 2.98818e+07 2.993e+07
          3.0017e+07 3.00914e+07 3.01384e+07 3.01955e+07 3.07924e+07 3.19405e+07 3.26294e+07 3.28243e+07 3.29896e+07 2.92956e+07 2.93551e+07 2.95718e+07
          2.99272e+07 3.01069e+07 3.01556e+07 3.02393e+07 3.0309e+07 3.03565e+07 3.04207e+07 3.10114e+07 3.22763e+07 3.30333e+07 3.31834e+07 3.36116e+07
          2.95142e+07 2.95828e+07 2.97538e+07 3.00812e+07 3.03055e+07 3.03598e+07 3.04496e+07 3.05232e+07 3.05888e+07 3.06719e+07 3.15089e+07 3.2861e+07
          3.34069e+07 3.35661e+07 3.40943e+07 2.97226e+07 2.97941e+07 2.99455e+07 3.02649e+07 3.04933e+07 3.05537e+07 3.06583e+07 3.07429e+07 3.08298e+07
          3.09268e+07 3.20575e+07 3.34611e+07 3.37946e+07 3.39912e+07 3.45643e+07 2.99104e+07 2.9975e+07 3.01592e+07 3.04959e+07 3.06812e+07 3.07515e+07
          3.08754e+07 3.09741e+07 3.1088e+07 3.12105e+07 3.25201e+07 3.39537e+07 3.42379e+07 3.44597e+07 3.48981e+07 3.008e+07 3.01411e+07 3.03015e+07
          3.06389e+07 3.08779e+07 3.09502e+07 3.10903e+07 3.12058e+07 3.13461e+07 3.15132e+07 3.30327e+07 3.43803e+07 3.46962e+07 3.48956e+07 3.51917e+07
        </DataArray>
        <DataArray type="Float32" Name="pressure[1]" NumberOfComponents="1" format="ascii">
          2.10092e+07 2.10238e+07 2.16008e+07 2.22042e+07 2.25756e+07 2.30048e+07 2.31392e+07 2.31892e+07 2.32494e+07 2.33168e+07 2.35111e+07 2.38321e+07
          2.40707e+07 2.47078e+07 2.54629e+07 2.10533e+07 2.10678e+07 2.17058e+07 2.23404e+07 2.27495e+07 2.31825e+07 2.32812e+07 2.33202e+07 2.33825e+07
          2.34592e+07 2.37298e+07 2.40546e+07 2.42474e+07 2.4901e+07 2.56297e+07 2.10978e+07 2.1112e+07 2.17767e+07 2.24848e+07 2.28465e+07 2.32515e+07
          2.33703e+07 2.34282e+07 2.35097e+07 2.36169e+07 2.39831e+07 2.43523e+07 2.45424e+07 2.51462e+07 2.58417e+07 2.11737e+07 2.12173e+07 2.16487e+07
          2.26191e+07 2.297e+07 2.33574e+07 2.34645e+07 2.35177e+07 2.3646e+07 2.38168e+07 2.43065e+07 2.47259e+07 2.49133e+07 2.54387e+07 2.61065e+07
          2.13058e+07 2.13299e+07 1.97966e+07 2.27202e+07 2.31528e+07 2.35624e+07 2.36329e+07 2.36696e+07 2.38798e+07 2.4205e+07 2.46928e+07 2.50826e+07
          2.52769e+07 2.57706e+07 2.63671e+07 2.15063e+07 2.15493e+07 2.21368e+07 2.32314e+07 2.35503e+07 2.38233e+07 2.38644e+07 2.38949e+07 2.41812e+07
          2.46514e+07 2.51485e+07 2.54061e+07 2.56154e+07 2.6104e+07 2.66599e+07 2.17636e+07 2.18139e+07 2.28133e+07 2.37286e+07 2.39418e+07 2.41311e+07
          2.41658e+07 2.42317e+07 2.44848e+07 2.50892e+07 2.55775e+07 2.56928e+07 2.58919e+07 2.64659e+07 2.70694e+07 2.21336e+07 2.21878e+07 2.32831e+07
          2.40999e+07 2.42933e+07 2.44304e+07 2.45187e+07 2.45998e+07 2.48762e+07 2.54681e+07 2.58642e+07 2.59541e+07 2.622e+07 2.68418e+07 2.76371e+07
          2.26734e+07 2.27355e+07 2.36518e+07 2.44042e+07 2.46145e+07 2.4694e+07 2.49185e+07 2.5145e+07 2.54401e+07 2.59296e+07 2.617e+07 2.62095e+07
          2.64801e+07 2.72708e+07 2.82052e+07 2.33311e+07 2.34332e+07 2.39966e+07 2.46028e+07 2.499e+07 2.5179e+07 2.5541e+07 2.59141e+07 2.61117e+07
          2.64031e+07 2.65469e+07 2.65806e+07 2.68652e+07 2.77047e+07 2.85419e+07 2.42377e+07 2.43727e+07 2.46258e+07 2.50464e+07 2.53845e+07 2.55293e+07
          2.60421e+07 2.65634e+07 2.67166e+07 2.68526e+07 2.69354e+07 2.69798e+07 2.72155e+07 2.8063e+07 2.87894e+07 2.49582e+07 2.50355e+07 2.51662e+07
          2.54879e+07 2.57649e+07 2.58629e+07 2.65233e+07 2.71846e+07 2.72361e+07 2.72993e+07 2.73397e+07 2.73848e+07 2.75887e+07 2.84234e+07 2.90648e+07
          2.54841e+07 2.55421e+07 2.56038e+07 2.59188e+07 2.61918e+07 2.64309e+07 2.71692e+07 2.78337e+07 2.79229e+07 2.78071e+07 2.7823e+07 2.78834e+07
          2.85634e+07 2.96504e+07 2.98789e+07 2.58752e+07 2.59586e+07 2.60628e+07 2.64337e+07 2.72996e+07 2.74238e+07 2.80135e+07 2.84795e+07 2.85377e+07
          2.85177e+07 2.83604e+07 2.90088e+07 2.99631e+07 3.06206e+07 3.03334e+07 2.63615e+07 2.6374e+07 2.66975e+07 2.72207e+07 2.82574e+07 2.83486e+07
          2.87298e+07 2.90191e+07 2.907e+07 2.91416e+07 2.92676e+07 3.0169e+07 3.08886e+07 3.1077e+07 3.08807e+07 2.71904e+07 2.72153e+07 2.74653e+07
          2.85273e+07 2.88554e+07 2.89181e+07 2.9188e+07 2.93664e+07 2.94175e+07 2.94966e+07 2.98156e+07 3.06478e+07 3.12685e+07 3.16058e+07 3.13958e+07
          2.80238e+07 2.80612e+07 2.81856e+07 2.91421e+07 2.93201e+07 2.93594e+07 2.94914e+07 2.96093e+07 2.96587e+07 2.97245e+07 3.01637e+07 3.11481e+07
          3.18085e+07 3.21349e+07 3.18662e+07 2.86955e+07 2.8754e+07 2.91429e+07 2.94773e+07 2.9622e+07 2.96667e+07 2.97676e+07 2.98537e+07 2.99053e+07
          2.99649e+07 3.05075e+07 3.15467e+07 3.22199e+07 3.24847e+07 3.23352e+07 2.9031e+07 2.90988e+07 2.93378e+07 2.96975e+07 2.98818e+07 2.993e+07
          3.0017e+07 3.00914e+07 3.01384e+07 3.01955e+07 3.07924e+07 3.19405e+07 3.26294e+07 3.28243e+07 3.29896e+07 2.92956e+07 2.93551e+07 2.95718e+07
          2.99272e+07 3.01069e+07 3.01556e+07 3.02393e+07 3.0309e+07 3.03565e+07 3.04207e+07 3.10114e+07 3.22763e+07 3.30333e+07 3.31834e+07 3.36116e+07
          2.95142e+07 2.95828e+07 2.97538e+07 3.00812e+07 3.03055e+07 3.03598e+07 3.04496e+07 3.05232e+07 3.05888e+07 3.06719e+07 3.15089e+07 3.2861e+07
          3.34069e+07 3.35661e+07 3.40943e+07 2.97226e+07 2.97941e+07 2.99455e+07 3.02649e+07 3.04933e+07 3.05537e+07 3.06583e+07 3.07429e+07 3.08298e+07
          3.09268e+07 3.20575e+07 3.34611e+07 3.37946e+07 3.39912e+07 3.45643e+07 2.99104e+07 2.9975e+07 3.01592e+07 3.04959e+07 3.06812e+07 3.07515e+07
          3.08754e+07 3.09741e+07 3.1088e+07 3.12105e+07 3.25201e+07 3.39537e+07 3.42379e+07 3.44597e+07 3.48981e+07 3.008e+07 3.01411e+07 3.03015e+07
          3.06389e+07 3.08779e+07 3.09502e+07 3.10903e+07 3.12058e+07 3.13461e+07 3.15132e+07 3.30327e+07 3.43803e+07 3.46962e+07 3.48956e+07 3.51917e+07
        </DataArray>
        <DataArray type="Float32" Name="pressure[2]" NumberOfComponents="1" format="ascii">
          2.10092e+07 2.10238e+07 2.16008e+07 2.22042e+07 2.25756e+07 2.30048e+07 2.31392e+07 2.31892e+07 2.32494e+07 2.33168e+07 2.35111e+07 2.38321e+07
          2.40707e+07 2.47078e+07 2.54629e+07 2.10533e+07 2.10678e+07 2.17058e+07 2.23404e+07 2.27495e+07 2.31825e+07 2.32812e+07 2.33202e+07 2.33825e+07
          2.34592e+07 2.37298e+07 2.40546e+07 2.42474e+07 2.4901e+07 2.56297e+07 2.10978e+07 2.1112e+07 2.17767e+07 2.24848e+07 2.28465e+07 2.32515e+07
          2.33703e+07 2.34282e+07 2.35097e+07 2.36169e+07 2.39831e+07 2.43523e+07 2.45424e+07 2.51462e+07 2.58417e+07 2.11737e+07 2.12173e+07 2.16487e+07
          2.26191e+07 2.297e+07 2.33574e+07 2.34645e+07 2.35177e+07 2.3646e+07 2.38168e+07 2.43065e+07 2.47259e+07 2.49133e+07 2.54387e+07 2.61065e+07
          2.13058e+07 2.13299e+07 1.97966e+07 2.27202e+07 2.31528e+07 2.35624e+07 2.36329e+07 2.36696e+07 2.38798e+07 2.4205e+07 2.46928e+07 2.50826e+07
          2.52769e+07 2.57706e+07 2.63671e+07 2.15063e+07 2.15493e+07 2.21368e+07 2.32314e+07 2.35503e+07 2.38233e+07 2.38644e+07 2.38949e+07 2.41812e+07
          2.46514e+07 2.51485e+07 2.54061e+07 2.56154e+07 2.6104e+07 2.66599e+07 2.17636e+07 2.18139e+07 2.28133e+07 2.37286e+07 2.39418e+07 2.41311e+07
          2.41658e+07 2.42317e+07 2.44848e+07 2.50892e+07 2.55775e+07 2.56928e+07 2.58919e+07 2.64659e+07 2.70694e+07 2.21336e+07 2.21878e+07 2.32831e+07
          2.40999e+07 2.42933e+07 2.44304e+07 2.45187e+07 2.45998e+07 2.48762e+07 2.54681e+07 2.58642e+07 2.59541e+07 2.622e+07 2.68418e+07 2.76371e+07
          2.26734e+07 2.27355e+07 2.36518e+07 2.44042e+07 2.46145e+07 2.4694e+07 2.49185e+07 2.5145e+07 2.54401e+07 2.59296e+07 2.617e+07 2.62095e+07
          2.64801e+07 2.72708e+07 2.82052e+07 2.33311e+07 2.34332e+07 2.39966e+07 2.46028e+07 2.499e+07 2.5179e+07 2.5541e+07 2.59141e+07 2.61117e+07
          2.64031e+07 2.65469e+07 2.65806e+07 2.68652e+07 2.77047e+07 2.85419e+07 2.42377e+07 2.43727e+07 2.46258e+07 2.50464e+07 2.53845e+07 2.55293e+07
          2.60421e+07 2.65634e+07 2.67166e+07 2.68526e+07 2.69354e+07 2.69798e+07 2.72155e+07 2.8063e+07 2.87894e+07 2.49582e+07 2.50355e+07 2.51662e+07
          2.54879e+07 2.57649e+07 2.58629e+07 2.65233e+07 2.71846e+07 2.72361e+07 2.72993e+07 2.73397e+07 2.73848e+07 2.75887e+07 2.84234e+07 2.90648e+07
          2.54841e+07 2.55421e+07 2.56038e+07 2.59188e+07 2.61918e+07 2.64309e+07 2.71692e+07 2.78337e+07 2.79229e+07 2.78071e+07 2.7823e+07 2.78834e+07
          2.85634e+07 2.96504e+07 2.98789e+07 2.58752e+07 2.59586e+07 2.60628e+07 2.64337e+07 2.72996e+07 2.74238e+07 2.80135e+07 2.84795e+07 2.85377e+07
          2.85177e+07 2.83604e+07 2.90088e+07 2.99631e+07 3.06206e+07 3.03334e+07 2.63615e+07 2.6374e+07 2.66975e+07 2.72207e+07 2.82574e+07 2.83486e+07
          2.87298e+07 2.90191e+07 2.907e+07 2.91416e+07 2.92676e+07 3.0169e+07 3.08886e+07 3.1077e+07 3.08807e+07 2.71904e+07 2.72153e+07 2.74653e+07
          2.85273e+07 2.88554e+07 2.89181e+07 2.9188e+07 2.93664e+07 2.94175e+07 2.94966e+07 2.98156e+07 3.06478e+07 3.12685e+07 3.16058e+07 3.13958e+07
          2.80238e+07 2.80612e+07 2.81856e+07 2.91421e+07 2.93201e+07 2.93594e+07 2.94914e+07 2.96093e+07 2.96587e+07 2.97245e+07 3.01637e+07 3.11481e+07
          3.18085e+07 3.21349e+07 3.18662e+07 2.86955e+07 2.8754e+07 2.91429e+07 2.94773e+07 2.9622e+07 2.96667e+07 2.97676e+07 2.98537e+07 2.99053e+07
          2.99649e+07 3.05075e+07 3.15467e+07 3.22199e+07 3.24847e+07 3.23352e+07 2.9031e+07 2.90988e+07 2.93378e+07 2.96975e+07 2.98818e+07 2.993e+07
          3.0017e+07 3.00914e+07 3.01384e+07 3.01955e+07 3.07924e+07 3.19405e+07 3.26294e+07 3.28243e+07 3.29896e+07 2.92956e+07 2.93551e+07 2.95718e+07
          2.99272e+07 3.01069e+07 3.01556e+07 3.02393e+07 3.0309e+07 3.03565e+07 3.04207e+07 3.10114e+07 3.22763e+07 3.30333e+07 3.31834e+07 3.36116e+07
          2.95142e+07 2.95828e+07 2.97538e+07 3.00812e+07 3.03055e+07 3.03598e+07 3.04496e+07 3.05232e+07 3.05888e+07 3.06719e+07 3.15089e+07 3.2861e+07
          3.34069e+07 3.35661e+07 3.40943e+07 2.97226e+07 2.97941e+07 2.99455e+07 3.02649e+07 3.04933e+07 3.05537e+07 3.06583e+07 3.07429e+07 3.08298e+07
          3.09268e+07 3.20575e+07 3.34611e+07 3.37946e+07 3.39912e+07 3.45643e+07 2.99104e+07 2.9975e+07 3.01592e+07 3.04959e+07 3.06812e+07 3.07515e+07
          3.08754e+07 3.09741e+07 3.1088e+07 3.12105e+07 3.25201e+07 3.39537e+07 3.42379e+07 3.44597e+07 3.48981e+07 3.008e+07 3.01411e+07 3.03015e+07
          3.06389e+07 3.08779e+07 3.09502e+07 3.10903e+07 3.12058e+07 3.13461e+07 3.15132e+07 3.30327e+07 3.43803e+07 3.46962e+07 3.48956e+07 3.51917e+07
        </DataArray>
        <DataArray type="Float32" Name="velocity[0]" NumberOfComponents="1" format="ascii">
          -3.66609e-10 3.34541e-08 2.26851e-10 -1.86496e-09 -3.19803e-10 -1.30683e-09 -1.49318e-10 1.4449e-09 2.32651e-09 -1.87223e-10 -1.8701e-09 -2.61371e-09
          -1.7479e-09 -5.7245e-10 -2.69124e-09 -4.97025e-09 9.99493e-08 5.46972e-10 -1.19389e-08 6.2561e-11 1.91885e-09 8.8995e-09 6.08966e-09 5.28181e-09
          -1.95047e-09 -3.89904e-09 -1.11487e-08 -6.84244e-09 -1.77818e-09 -7.14418e-09 -3.15855e-08 1.72068e-07 1.19304e-09 9.63281e-09 6.67455e-10 5.58927e-09
          1.62354e-08 1.15969e-08 3.43033e-09 -5.42011e-09 -4.64865e-09 -2.7908e-08 -9.82303e-09 -3.81979e-09 -1.07216e-08 -3.22453e-08 1.87905e-07 6.81584e-09
          8.63945e-08 -9.83319e-10 -5.31044e-09 6.13931e-10 4.54456e-09 -3.13051e-09 -1.26042e-08 -5.97084e-09 -4.80256e-08 -6.97188e-09 -5.59265e-09 -1.46536e-08
          -8.85496e-08 -3.84125e-08 -2.58765e-10 -1.13518e-07 -1.36911e-08 -4.72516e-08 -4.72758e-08 -3.40489e-08 -6.44314e-09 -1.31755e-08 -8.42601e-09 -8.18446e-08
          -3.52684e-09 -5.12986e-09 -1.80894e-08 -1.75681e-07 -2.19319e-07 -7.55369e-09 -2.50527e-07 -3.18898e-08 -1.65098e-07 -9.3993e-08 -6.87683e-08 -4.97149e-09
          -6.00822e-09 -1.29864e-08 -1.19914e-07 -2.08144e-09 -4.08889e-09 -2.04101e-08 -1.77051e-07 -1.90705e-07 -2.3679e-09 -8.40931e-08 -3.25787e-08 -3.13725e-07
          -6.68433e-08 -1.00574e-07 -4.8972e-09 -2.88646e-09 -1.62656e-08 -1.47058e-07 -1.83568e-09 -4.04392e-09 -2.20256e-08 -1.6169e-07 -1.75507e-07 -2.13245e-09
          -1.68336e-08 -2.17301e-08 -3.63163e-07 -1.94139e-08 -1.76808e-07 -5.7996e-09 -2.59881e-09 -1.8768e-08 -1.67081e-07 -1.54537e-09 -4.18175e-09 -2.3852e-08
          -1.46478e-07 -1.58783e-07 -2.67266e-09 -3.49614e-09 -2.00952e-08 -3.20912e-07 -9.39094e-09 -2.85174e-07 -5.76165e-09 -3.15852e-09 -3.21886e-08 -1.63693e-07
          -1.49362e-09 -3.7882e-09 -2.62609e-08 -1.19705e-07 -1.45129e-07 -1.02855e-08 -1.82347e-09 -2.52243e-08 -2.75573e-07 -4.57733e-09 -3.84904e-07 -5.81914e-09
          -3.64924e-09 -5.51089e-08 -1.39742e-07 -2.36797e-09 -3.17122e-09 -2.86723e-08 -8.84092e-08 -1.36755e-07 -2.08272e-08 -2.12835e-09 -3.04947e-08 -2.51544e-07
          -1.59226e-09 -4.40298e-07 -1.10486e-08 -5.1106e-09 -7.08443e-08 -1.12901e-07 -5.43192e-09 -3.50966e-09 -3.08725e-08 -6.91302e-08 -1.29839e-07 -2.64083e-08
          -1.43851e-09 -3.63533e-08 -2.3945e-07 -1.28573e-09 -4.601e-07 -2.00823e-08 -1.00875e-08 -7.67717e-08 -7.96617e-08 -1.17707e-08 -6.45773e-09 -3.32813e-08
          -5.82922e-08 -1.29014e-07 -2.36669e-08 -2.46778e-09 -3.13227e-08 -2.28607e-07 -1.81728e-09 -4.77265e-07 -4.37279e-08 -1.13912e-08 -7.31523e-08 -3.50441e-08
          -2.62112e-08 -1.38923e-08 -3.47247e-08 -3.79861e-08 -1.49611e-07 -1.58241e-08 -6.36765e-09 -2.41416e-08 -2.19433e-07 -1.89997e-09 -4.82608e-07 -8.17083e-08
          -1.63615e-08 -4.56616e-08 -7.88915e-09 -3.52139e-08 -2.72636e-08 -3.33227e-08 -3.98306e-08 -1.28351e-07 -1.24536e-08 -7.61979e-09 -2.97202e-08 -2.22403e-07
          -1.39985e-09 -4.62243e-07 -1.04339e-07 -2.69069e-08 -1.99082e-08 -4.56947e-09 -3.31266e-08 -4.33321e-08 -2.97095e-08 -6.18476e-08 -7.51932e-08 -1.25011e-08
          -5.39675e-09 -3.74225e-08 -2.26884e-07 -1.78189e-09 -4.00438e-07 -1.10353e-07 -3.41388e-08 -1.03954e-08 -5.64979e-09 -3.74404e-08 -6.44234e-08 -2.48951e-08
          -6.67402e-08 -5.37956e-08 -9.43413e-09 -5.85679e-09 -5.29031e-08 -2.00751e-07 -3.36671e-09 -3.19232e-07 -1.1181e-07 -5.20427e-08 -3.91095e-09 -5.36133e-09
          -3.09341e-08 -9.61185e-08 -1.97243e-08 -6.69512e-08 -4.2221e-08 -3.40183e-09 -4.2668e-09 -7.87442e-08 -1.4504e-07 -5.07426e-09 -2.45166e-07 -1.21603e-07
          -7.97602e-08 -2.71235e-09 -3.59328e-09 -2.01277e-08 -1.25932e-07 -1.53791e-08 -6.07698e-08 -3.01144e-08 -1.69104e-09 -1.5095e-09 -9.70575e-08 -9.20412e-08
          -5.33935e-09 -1.7635e-07 -1.2235e-07 -1.26478e-07 -1.56832e-09 -2.95873e-09 -2.63876e-08 -1.44168e-07 -1.34618e-08 -5.05571e-08 -2.0285e-08 -1.6316e-09
          -6.77076e-10 -1.02945e-07 -5.21862e-08 -4.45152e-09 -1.29418e-07 -7.94885e-08 -2.20652e-07 -2.76823e-09 -4.22664e-09 -3.9234e-08 -1.53091e-07 -1.44969e-08
          -3.86667e-08 -1.36487e-08 -1.46175e-09 -1.64239e-10 -9.54736e-08 -2.72213e-08 -3.81478e-09 -1.0201e-07 -3.33793e-08 -3.07018e-07 -4.35738e-09 -7.79975e-09
          -4.7688e-08 -1.60174e-07 -1.66706e-08 -2.43201e-08 -6.95832e-09 -2.30917e-09 -8.83079e-10 -7.05083e-08 -1.85062e-08 -3.73927e-09 -9.67804e-08 -1.81638e-08
          -3.24978e-07 -3.97135e-09 -1.49589e-08 -5.22255e-08 -1.67368e-07 -2.07038e-08 -1.13519e-08 -2.78149e-09 -1.04002e-09 -5.83005e-10 -3.52189e-08 -1.38359e-08
          -3.07794e-09 -1.02558e-07 -1.46708e-08 -2.80188e-07 -5.50872e-09 -2.57794e-08 -6.86643e-08 -1.74556e-07 -2.70541e-08 -3.00789e-09 -6.26841e-10 2.30933e-10
          8.78703e-11 -8.32787e-09 -5.28577e-09 -1.12866e-09 -5.23556e-08 -6.83896e-09 -1.21173e-07 -3.63528e-09 -1.56406e-08 -4.10496e-08 -8.97602e-08 -1.51954e-08
        </DataArray>
        <DataArray type="Float32" Name="velocity[1]" NumberOfComponents="1" format="ascii">
          5.69754e-26 5.28686e-24 6.9751e-26 -2.89836e-25 4.97011e-26 0 2.32058e-26 -1.87975e-25 5.04721e-26 5.62281e-24 -3.64952e-24 4.01461e-26
          2.40887e-24 -9.5823e-25 4.18094e-25 6.58485e-25 5.06268e-24 6.34708e-26 -1.27577e-24 -1.83144e-25 7.24335e-24 1.24355e-24 3.52039e-25 -6.84928e-24
          -1.43258e-25 0 -3.9396e-26 4.43229e-26 1.9203e-28 2.73789e-25 3.47784e-24 -7.4862e-24 -1.64305e-24 4.62827e-24 -1.80855e-25 0
          2.23359e-25 -4.01591e-25 -3.85464e-25 0 6.95286e-24 -1.08292e-23 0 1.12944e-24 -2.82541e-25 -6.71599e-24 1.55046e-23 -1.51008e-24
          -8.23984e-24 3.62571e-25 9.63851e-24 -2.11564e-23 2.47494e-23 -3.94614e-24 1.11384e-24 3.43818e-24 -4.5817e-24 3.15163e-24 -1.31633e-24 9.86878e-25
          -9.34756e-26 -6.31209e-23 5.92484e-24 1.0643e-23 -3.86996e-25 -5.1711e-24 9.69941e-26 -9.25103e-26 -2.58643e-26 -6.4912e-24 4.16928e-24 -7.62801e-24
          -1.83629e-28 1.28413e-25 -1.50819e-24 -1.28515e-25 6.89079e-24 -6.36667e-25 7.94002e-24 1.68405e-25 -1.37261e-23 0 -9.20687e-26 -2.3872e-26
          3.41095e-25 -4.42088e-25 5.47337e-24 -1.46806e-24 8.68729e-25 1.50775e-24 -1.04453e-24 1.22395e-24 0 9.01636e-24 -8.92714e-25 -2.63873e-23
          -5.9186e-26 -8.71501e-26 -3.38569e-24 4.57375e-28 -2.15759e-28 -5.71507e-28 3.74058e-26 -1.26e-28 -1.66378e-24 -1.73865e-25 1.29705e-23 1.34723e-24
          3.27102e-24 -5.09156e-26 3.1495e-23 -3.17385e-26 -5.49494e-26 -8.5571e-26 -6.03023e-26 -3.77694e-24 -1.25377e-23 -1.77431e-28 -3.7269e-25 1.94761e-24
          -1.3601e-24 -9.40022e-24 -1.04501e-25 -1.66176e-24 4.67814e-25 6.66555e-24 0 0 -8.01183e-25 1.53984e-28 1.087e-24 3.04503e-24
          -3.58522e-28 5.60951e-26 -1.76125e-28 -1.07925e-23 1.17058e-24 1.34962e-24 -1.37183e-25 -1.69027e-24 4.4705e-24 -8.20896e-24 6.41764e-24 7.38884e-25
          -4.93455e-26 -6.68803e-25 3.20884e-24 -8.45849e-25 0 -2.13365e-24 4.27055e-24 1.04864e-25 5.23478e-25 -2.15917e-25 2.24884e-24 1.03645e-27
          -4.87934e-24 4.39405e-24 7.55553e-25 1.77899e-25 2.68491e-25 8.19037e-24 1.82721e-24 -3.06727e-25 1.53363e-25 -4.81488e-24 1.31671e-24 -3.45548e-25
          1.24013e-26 -1.01161e-24 -1.82632e-23 3.0296e-26 8.87018e-25 -1.51092e-24 -5.95702e-25 2.26727e-26 2.8824e-24 -2.0241e-24 1.12785e-24 -2.21513e-25
          4.24366e-24 9.76304e-24 0 -1.66113e-25 -1.22636e-24 1.00657e-24 5.18326e-26 1.78774e-24 -3.02633e-24 -1.20861e-28 -5.26661e-24 -8.53126e-25
          1.67287e-24 -6.85011e-25 2.37211e-28 -2.58535e-24 7.86356e-28 8.95293e-25 -8.79725e-25 -2.09862e-28 1.61988e-23 -3.95114e-26 -9.51262e-25 3.63169e-24
          1.92021e-24 5.26702e-24 2.53149e-24 -4.71899e-24 -2.2371e-28 -2.47924e-24 -1.65893e-24 -6.98488e-24 6.06222e-29 7.1479e-25 7.56843e-25 1.39039e-27
          -3.82624e-26 -6.11781e-24 1.73714e-24 0 0 3.72941e-25 3.86929e-24 -5.28125e-25 4.61699e-24 0 2.28481e-24 0
          -3.69304e-25 4.39915e-25 1.09573e-27 9.76366e-26 -7.39405e-24 -4.78249e-28 -4.16095e-28 -5.21775e-28 4.28945e-24 -8.6481e-28 -1.2555e-24 -2.13855e-24
          3.2874e-28 1.04046e-24 2.34259e-29 -1.71651e-25 1.9655e-24 -1.03719e-23 0 -1.08379e-23 0 5.75218e-28 3.12576e-24 -3.86471e-24
          -1.73204e-24 4.66395e-28 1.33478e-24 0 3.65993e-24 0 5.41271e-25 1.9411e-24 4.91242e-24 1.16826e-25 -6.28379e-24 -5.47842e-24
          -2.17569e-24 1.83906e-25 5.20276e-26 -2.21478e-28 -1.77609e-24 -1.05531e-24 4.33077e-24 -2.16916e-24 2.38935e-24 -1.97448e-24 7.95572e-25 8.87716e-24
          -7.55882e-26 -4.41083e-24 1.02431e-23 5.55276e-24 -3.34175e-24 7.26449e-26 9.20732e-25 -6.18306e-28 1.03681e-24 -1.8049e-29 -3.92314e-24 8.50774e-25
          -1.79876e-24 2.38671e-25 -2.74358e-24 -1.24907e-25 -5.7667e-24 -5.18941e-24 9.55372e-24 2.72679e-25 3.56986e-24 1.0753e-24 -3.59628e-25 -8.57445e-25
          -1.04352e-24 6.28076e-25 0 -4.04214e-26 -1.28044e-24 4.54198e-24 -7.98499e-24 7.98461e-24 -5.76603e-24 1.59969e-27 0 0
          2.38601e-25 -8.1725e-28 1.37463e-24 -1.18612e-24 -1.24668e-24 1.14993e-24 -1.93057e-24 -8.56378e-25 -1.32885e-24 2.48986e-26 5.63733e-25 -3.76821e-24
          1.35479e-23 -2.57222e-25 -6.48701e-24 4.6613e-25 9.37869e-25 -2.78071e-28 -8.29251e-25 -7.12148e-29 -1.93676e-29 1.17892e-25 -2.88488e-24 5.0723e-25
          -1.27534e-25 1.02824e-23 -4.26714e-24 0 -2.7381e-25 -8.54581e-25 6.61264e-24 -7.72537e-25 0 -4.67491e-25 -7.23761e-29 -3.80072e-25
          6.45041e-25 -1.29423e-24 -2.1703e-24 -3.50682e-25 -2.72546e-24 1.06286e-24 -2.94506e-23 0 2.94208e-23 -2.1537e-23 1.77639e-23 4.46855e-25
        </DataArray>
        <DataArray type="Float32" Name="velocity[2]" NumberOfComponents="1" format="ascii">
          -4.34652e-11 4.29694e-09 -3.18738e-09 -3.41334e-09 -2.97033e-09 -3.01479e-09 -2.71296e-09 -2.44906e-09 -2.44596e-09 -2.9851e-09 -3.11587e-09 -2.93292e-09
          -2.46829e-09 -2.00858e-09 -1.37197e-09 -5.97164e-10 1.65541e-08 -2.57531e-09 -4.31094e-09 -1.76799e-09 -1.64468e-09 -8.40383e-10 -1.6496e-09 -1.88975e-09
          -3.10218e-09 -3.33187e-09 -4.20731e-09 -2.83536e-09 -1.59449e-09 -1.84735e-09 -4.07459e-09 3.13782e-08 -7.30501e-10 -7.21024e-10 -3.71722e-09 -2.74844e-09
          -7.48085e-10 -1.55916e-09 -2.88415e-09 -4.17691e-09 -3.88063e-09 -7.25104e-09 -3.40294e-09 -2.11973e-09 -2.49619e-09 -7.11789e-09 3.14138e-08 2.37499e-10
          1.15537e-08 -6.03765e-09 -6.18382e-09 -4.26781e-09 -2.93716e-09 -3.76358e-09 -4.92918e-09 -3.45547e-09 -1.02358e-08 -2.59721e-09 -2.45862e-09 -3.28925e-09
          -1.03726e-08 -3.60607e-10 -1.0073e-09 -2.77068e-08 -1.28669e-08 -1.66026e-08 -1.41593e-08 -1.01047e-08 -4.45951e-09 -5.82656e-09 -5.02959e-09 -1.63818e-08
          -1.1631e-09 -1.6474e-09 -3.63004e-09 -3.03161e-08 -3.84068e-08 -2.50326e-09 -5.11217e-08 -1.75299e-08 -3.65192e-08 -1.95605e-08 -1.4596e-08 -3.20094e-09
          -3.48804e-09 -4.62654e-09 -2.24897e-08 -9.32194e-10 -1.35392e-09 -3.93317e-09 -3.16681e-08 -3.47745e-08 -1.80382e-09 -1.89943e-08 -1.30078e-08 -5.98958e-08
          -1.4418e-08 -2.06985e-08 -3.05511e-09 -2.67184e-09 -5.02975e-09 -2.72476e-08 -8.06942e-10 -1.15203e-09 -4.08921e-09 -2.89448e-08 -3.21722e-08 -1.91825e-09
          -4.9878e-09 -6.59027e-09 -6.75805e-08 -7.72773e-09 -3.43407e-08 -2.82933e-09 -2.23289e-09 -4.938e-09 -3.05753e-08 -1.03629e-09 -1.54142e-09 -4.61041e-09
          -2.62526e-08 -2.91679e-08 -1.90493e-09 -2.11263e-09 -4.9993e-09 -5.92138e-08 -5.69564e-09 -5.28188e-08 -2.01746e-09 -1.57015e-09 -5.96154e-09 -2.90137e-08
          -9.73444e-10 -1.40632e-09 -5.02919e-09 -2.23122e-08 -2.81912e-08 -3.96226e-09 -1.77541e-09 -5.7292e-09 -5.05151e-08 -3.55805e-09 -6.95873e-08 -1.61873e-09
          -1.20128e-09 -9.53039e-09 -2.45708e-08 -1.16972e-09 -1.32713e-09 -5.46098e-09 -1.63649e-08 -2.57661e-08 -5.12797e-09 -1.56633e-09 -6.4408e-09 -4.56179e-08
          -1.91513e-09 -7.89099e-08 -2.55033e-09 -1.16579e-09 -1.24464e-08 -2.03588e-08 -1.99144e-09 -1.37564e-09 -5.77278e-09 -1.2668e-08 -2.40629e-08 -5.84422e-09
          -1.25097e-09 -7.25711e-09 -4.31223e-08 -1.32566e-09 -8.20725e-08 -4.08013e-09 -1.91399e-09 -1.34082e-08 -1.50397e-08 -4.05627e-09 -2.48171e-09 -6.34372e-09
          -1.05233e-08 -2.30675e-08 -4.74989e-09 -1.38765e-09 -6.84302e-09 -4.23514e-08 -2.65161e-09 -8.61731e-08 -8.25078e-09 -1.48135e-09 -1.2813e-08 -7.87695e-09
          -7.0448e-09 -3.30749e-09 -6.12692e-09 -7.80593e-09 -2.77342e-08 -3.53787e-09 -1.97933e-09 -4.93342e-09 -3.94523e-08 -1.23477e-09 -8.61537e-08 -1.45275e-08
          -1.59615e-09 -7.86251e-09 -2.78926e-09 -7.90945e-09 -5.24311e-09 -5.40249e-09 -5.7914e-09 -2.2091e-08 -3.61895e-09 -2.88727e-09 -6.60342e-09 -4.00536e-08
          -8.23436e-10 -8.24712e-08 -1.94922e-08 -5.4689e-09 -4.34296e-09 -1.882e-09 -6.95258e-09 -7.47698e-09 -4.50905e-09 -1.06698e-08 -1.35222e-08 -3.15657e-09
          -1.89026e-09 -7.41865e-09 -4.07325e-08 -1.07945e-09 -7.26277e-08 -2.26312e-08 -8.91083e-09 -4.92867e-09 -4.38521e-09 -9.60092e-09 -1.18297e-08 -3.5156e-09
          -1.1678e-08 -9.63971e-09 -2.46374e-09 -2.08944e-09 -9.65544e-09 -3.62137e-08 -2.54508e-09 -5.91137e-08 -2.3461e-08 -1.24029e-08 -3.4082e-09 -3.79775e-09
          -9.14538e-09 -1.83168e-08 -2.62937e-09 -1.18819e-08 -7.84133e-09 -1.45127e-09 -1.94965e-09 -1.45085e-08 -2.69278e-08 -3.67366e-09 -4.7052e-08 -2.57371e-08
          -1.71856e-08 -3.07669e-09 -3.27944e-09 -6.18269e-09 -2.29124e-08 -2.11271e-09 -1.10495e-08 -6.34207e-09 -1.63053e-09 -1.53868e-09 -1.81168e-08 -1.7995e-08
          -3.75542e-09 -3.468e-08 -2.64828e-08 -2.64695e-08 -3.16954e-09 -3.4771e-09 -7.24097e-09 -2.64786e-08 -2.33433e-09 -9.25826e-09 -4.39608e-09 -1.3046e-09
          -1.24295e-09 -1.92739e-08 -1.11063e-08 -3.52369e-09 -2.60648e-08 -1.97589e-08 -4.41958e-08 -3.20577e-09 -3.2477e-09 -8.85509e-09 -2.81176e-08 -2.94121e-09
          -7.26586e-09 -3.50405e-09 -1.5039e-09 -1.20884e-09 -1.84414e-08 -7.18667e-09 -3.40664e-09 -2.09641e-08 -9.86116e-09 -5.78789e-08 -3.52301e-09 -4.02942e-09
          -1.08502e-08 -2.97534e-08 -3.27965e-09 -4.79726e-09 -2.37707e-09 -1.66957e-09 -1.37501e-09 -1.45213e-08 -6.30924e-09 -3.76667e-09 -2.00719e-08 -6.26249e-09
          -6.07914e-08 -4.47845e-09 -6.11049e-09 -1.21622e-08 -3.18936e-08 -4.65549e-09 -2.35748e-09 -1.2784e-09 -1.17791e-09 -1.26544e-09 -8.40086e-09 -5.77265e-09
          -4.04984e-09 -2.15559e-08 -6.06053e-09 -5.44524e-08 -7.41789e-09 -1.05498e-08 -1.68856e-08 -3.38334e-08 -5.88301e-09 -7.30929e-10 -5.42976e-10 -4.03103e-10
          -4.03966e-10 -2.32772e-09 -2.48212e-09 -2.02583e-09 -1.2485e-08 -6.26542e-09 -3.16819e-08 -1.35791e-08 -1.18814e-08 -1.35282e-08 -1.88313e-08 -3.15868e-09
        </DataArray>
        <DataArray type="Float32" Name="z[0]" NumberOfComponents="1" format="ascii">
          0.150578 0.150579 0.15058 0.150582 0.150582 0.150583 0.150584 0.150585 0.150585 0.150586 0.150587 0.150588
          0.150589 0.150591 0.150596 0.150581 0.150582 0.150583 0.150585 0.150586 0.150587 0.150587 0.150588 0.150588
          0.150589 0.15059 0.150591 0.150593 0.150595 0.150599 0.150584 0.150585 0.150587 0.150588 0.150589 0.15059
          0.15059 0.150591 0.150592 0.150593 0.150593 0.150595 0.150596 0.150598 0.150602 0.150588 0.150589 0.15059
          0.150591 0.150592 0.150593 0.150594 0.150594 0.150595 0.150596 0.150597 0.150598 0.150599 0.150601 0.150605
          0.150591 0.150592 0.150593 0.150594 0.150595 0.150596 0.150597 0.150603 0.150598 0.150599 0.1506 0.150601
          0.150602 0.150604 0.150609 0.150594 0.150595 0.150596 0.150597 0.150598 0.150599 0.150606 0.255458 0.150601