<?xml version="1.0"?>
<VTKFile type="UnstructuredGrid" version="0.1" byte_order="LittleEndian">
  <UnstructuredGrid>
    <Piece NumberOfCells="360" NumberOfPoints="800">
      <CellData Scalars="pressure[0]">
        <DataArray type="Float32" Name="pressure[0]" NumberOfComponents="1" format="ascii">
          2.11671e+07 2.11818e+07 2.21939e+07 2.30769e+07 2.34327e+07 2.38467e+07 2.39813e+07 2.40303e+07 2.40896e+07 2.41524e+07 2.43217e+07 2.46071e+07
          2.48266e+07 2.54283e+07 2.61393e+07 2.12116e+07 2.12263e+07 2.2348e+07 2.32836e+07 2.36337e+07 2.40435e+07 2.414e+07 2.41775e+07 2.42372e+07
          2.43075e+07 2.45483e+07 2.48433e+07 2.50145e+07 2.56248e+07 2.63042e+07 2.12565e+07 2.1271e+07 2.24148e+07 2.34533e+07 2.37706e+07 2.41504e+07
          2.42664e+07 2.43213e+07 2.43983e+07 2.44962e+07 2.48271e+07 2.51675e+07 2.53285e+07 2.58783e+07 2.65107e+07 2.13022e+07 2.13221e+07 2.22421e+07
          2.36004e+07 2.39135e+07 2.42965e+07 2.44398e+07 2.45229e+07 2.46343e+07 2.4776e+07 2.5195e+07 2.55759e+07 2.57267e+07 2.61724e+07 2.67645e+07
          2.13772e+07 2.14065e+07 1.9774e+07 2.37255e+07 2.43041e+07 2.48934e+07 2.49754e+07 2.50169e+07 2.50915e+07 2.53516e+07 2.56651e+07 2.60053e+07
          2.61253e+07 2.64968e+07 2.70124e+07 2.15622e+07 2.16057e+07 2.18521e+07 2.44529e+07 2.49585e+07 2.54181e+07 2.54859e+07 2.55632e+07 2.58705e+07
          2.66976e+07 2.65865e+07 2.64005e+07 2.64939e+07 2.68232e+07 2.72872e+07 2.1791e+07 2.18402e+07 2.25664e+07 2.51628e+07 2.55846e+07 2.59364e+07
          2.59938e+07 2.60596e+07 2.61269e+07 2.64204e+07 2.66069e+07 2.66576e+07 2.67656e+07 2.71656e+07 2.76617e+07 2.21102e+07 2.21633e+07 2.30763e+07
          2.56231e+07 2.61019e+07 2.63687e+07 2.64209e+07 2.64676e+07 2.65298e+07 2.66898e+07 2.68196e+07 2.68787e+07 2.70518e+07 2.75138e+07 2.81708e+07
          2.2554e+07 2.26118e+07 2.35223e+07 2.58741e+07 2.65776e+07 2.67995e+07 2.68843e+07 2.69649e+07 2.69478e+07 2.70025e+07 2.70582e+07 2.70911e+07
          2.7283e+07 2.78994e+07 2.86766e+07 2.31003e+07 2.31886e+07 2.40304e+07 2.49764e+07 2.69442e+07 2.71736e+07 2.73696e+07 2.75523e+07 2.7394e+07
          2.73417e+07 2.73435e+07 2.73667e+07 2.75968e+07 2.82926e+07 2.89852e+07 2.398e+07 2.44469e+07 2.49077e+07 2.54885e+07 2.72867e+07 2.74597e+07
          2.77768e+07 2.80552e+07 2.78535e+07 2.7728e+07 2.76705e+07 2.77284e+07 2.79212e+07 2.8645e+07 2.9551e+07 2.55977e+07 2.5755e+07 2.58732e+07
          2.62516e+07 2.76383e+07 2.7743e+07 2.81973e+07 2.85763e+07 2.86577e+07 2.84928e+07 2.84381e+07 2.84941e+07 2.89078e+07 2.94701e+07 3.02127e+07
          2.66497e+07 2.66832e+07 2.65706e+07 2.6935e+07 2.81052e+07 2.82093e+07 2.86973e+07 2.91294e+07 2.92251e+07 2.92567e+07 2.92689e+07 2.9463e+07
          2.99067e+07 3.06348e+07 3.07986e+07 2.74761e+07 2.75081e+07 2.72789e+07 2.81753e+07 2.8876e+07 2.8953e+07 2.9355e+07 2.9676e+07 2.97431e+07
          2.98278e+07 2.99121e+07 3.03352e+07 3.08916e+07 3.13298e+07 3.11806e+07 2.81479e+07 2.81497e+07 2.81672e+07 2.91934e+07 2.95846e+07 2.96418e+07
          2.99115e+07 3.01055e+07 3.0155e+07 3.02312e+07 3.03768e+07 3.1034e+07 3.15478e+07 3.17151e+07 3.16293e+07 2.87531e+07 2.8781e+07 2.88817e+07
          2.98148e+07 3.00212e+07 3.00743e+07 3.02657e+07 3.03933e+07 3.04409e+07 3.05102e+07 3.07718e+07 3.14034e+07 3.18754e+07 3.21532e+07 3.20544e+07
          2.93773e+07 2.94291e+07 2.97984e+07 3.02748e+07 3.03832e+07 3.04225e+07 3.05257e+07 3.06162e+07 3.06628e+07 3.07233e+07 3.10645e+07 3.18133e+07
          3.23199e+07 3.25903e+07 3.24464e+07 2.98857e+07 2.99447e+07 3.02786e+07 3.05331e+07 3.0646e+07 3.06904e+07 3.07718e+07 3.08401e+07 3.08885e+07
          3.09444e+07 3.13613e+07 3.21511e+07 3.2668e+07 3.28924e+07 3.28374e+07 3.01793e+07 3.0244e+07 3.04439e+07 3.07293e+07 3.08785e+07 3.09258e+07
          3.09979e+07 3.10585e+07 3.11035e+07 3.11575e+07 3.16148e+07 3.24859e+07 3.30147e+07 3.31869e+07 3.33673e+07 3.04183e+07 3.04762e+07 3.06559e+07
          3.09392e+07 3.1086e+07 3.11338e+07 3.1204e+07 3.12616e+07 3.13069e+07 3.13663e+07 3.1819e+07 3.27774e+07 3.33571e+07 3.34958e+07 3.3873e+07
          3.06223e+07 3.0687e+07 3.08313e+07 3.10936e+07 3.12743e+07 3.13262e+07 3.14013e+07 3.14621e+07 3.15209e+07 3.15943e+07 3.2231e+07 3.32548e+07
          3.36769e+07 3.38224e+07 3.42745e+07 3.08186e+07 3.08855e+07 3.10148e+07 3.12709e+07 3.14547e+07 3.15112e+07 3.15975e+07 3.16665e+07 3.17413e+07
          3.18251e+07 3.26812e+07 3.37438e+07 3.40072e+07 3.41807e+07 3.46665e+07 3.09993e+07 3.1061e+07 3.1215e+07 3.1484e+07 3.16352e+07 3.16991e+07
          3.17999e+07 3.18796e+07 3.19745e+07 3.20774e+07 3.30673e+07 3.41524e+07 3.43791e+07 3.45715e+07 3.49564e+07 3.11664e+07 3.12254e+07 3.13614e+07
          3.16307e+07 3.18223e+07 3.18877e+07 3.20006e+07 3.20929e+07 3.22076e+07 3.23439e+07 3.34907e+07 3.45117e+07 3.47622e+07 3.49378e+07 3.52163e+07
        </DataArray>
        <DataArray type="Float32" Name="pressure[1]" NumberOfComponents="1" format="ascii">
          2.11671e+07 2.11818e+07 2.21939e+07 2.30769e+07 2.34327e+07 2.38467e+07 2.39813e+07 2.40303e+07 2.40896e+07 2.41524e+07 2.43217e+07 2.46071e+07
          2.48266e+07 2.54283e+07 2.61393e+07 2.12116e+07 2.12263e+07 2.2348e+07 2.32836e+07 2.36337e+07 2.40435e+07 2.414e+07 2.41775e+07 2.42372e+07
          2.43075e+07 2.45483e+07 2.48433e+07 2.50145e+07 2.56248e+07 2.63042e+07 2.12565e+07 2.1271e+07 2.24148e+07 2.34533e+07 2.37706e+07 2.41504e+07
          2.42664e+07 2.43213e+07 2.43983e+07 2.44962e+07 2.48271e+07 2.51675e+07 2.53285e+07 2.58783e+07 2.65107e+07 2.13022e+07 2.13221e+07 2.22421e+07
          2.36004e+07 2.39135e+07 2.42965e+07 2.44398e+07 2.45229e+07 2.46343e+07 2.4776e+07 2.5195e+07 2.55759e+07 2.57267e+07 2.61724e+07 2.67645e+07
          2.13772e+07 2.14065e+07 1.9774e+07 2.37255e+07 2.43041e+07 2.48934e+07 2.49754e+07 2.50169e+07 2.50915e+07 2.53516e+07 2.56651e+07 2.60053e+07
          2.61253e+07 2.64968e+07 2.70124e+07 2.15622e+07 2.16057e+07 2.18521e+07 2.44529e+07 2.49585e+07 2.54181e+07 2.54859e+07 2.55632e+07 2.58705e+07
          2.66976e+07 2.65865e+07 2.64005e+07 2.64939e+07 2.68232e+07 2.72872e+07 2.1791e+07 2.18402e+07 2.25664e+07 2.51628e+07 2.55846e+07 2.59364e+07
          2.59938e+07 2.60596e+07 2.61269e+07 2.64204e+07 2.66069e+07 2.66576e+07 2.67656e+07 2.71656e+07 2.76617e+07 2.21102e+07 2.21633e+07 2.30763e+07
          2.56231e+07 2.61019e+07 2.63687e+07 2.64209e+07 2.64676e+07 2.65298e+07 2.66898e+07 2.68196e+07 2.68787e+07 2.70518e+07 2.75138e+07 2.81708e+07
          2.2554e+07 2.26118e+07 2.35223e+07 2.58741e+07 2.65776e+07 2.67995e+07 2.68843e+07 2.69649e+07 2.69478e+07 2.70025e+07 2.70582e+07 2.70911e+07
          2.7283e+07 2.78994e+07 2.86766e+07 2.31003e+07 2.31886e+07 2.40304e+07 2.49764e+07 2.69442e+07 2.71736e+07 2.73696e+07 2.75523e+07 2.7394e+07
          2.73417e+07 2.73435e+07 2.73667e+07 2.75968e+07 2.82926e+07 2.89852e+07 2.398e+07 2.44469e+07 2.49077e+07 2.54885e+07 2.72867e+07 2.74597e+07
          2.77768e+07 2.80552e+07 2.78535e+07 2.7728e+07 2.76705e+07 2.77284e+07 2.79212e+07 2.8645e+07 2.9551e+07 2.55977e+07 2.5755e+07 2.58732e+07
          2.62516e+07 2.76383e+07 2.7743e+07 2.81973e+07 2.85763e+07 2.86577e+07 2.84928e+07 2.84381e+07 2.84941e+07 2.89078e+07 2.94701e+07 3.02127e+07
          2.66497e+07 2.66832e+07 2.65706e+07 2.6935e+07 2.81052e+07 2.82093e+07 2.86973e+07 2.91294e+07 2.92251e+07 2.92567e+07 2.92689e+07 2.9463e+07
          2.99067e+07 3.06348e+07 3.07986e+07 2.74761e+07 2.75081e+07 2.72789e+07 2.81753e+07 2.8876e+07 2.8953e+07 2.9355e+07 2.9676e+07 2.97431e+07
          2.98278e+07 2.99121e+07 3.03352e+07 3.08916e+07 3.13298e+07 3.11806e+07 2.81479e+07 2.81497e+07 2.81672e+07 2.91934e+07 2.95846e+07 2.96418e+07
          2.99115e+07 3.01055e+07 3.0155e+07 3.02312e+07 3.03768e+07 3.1034e+07 3.15478e+07 3.17151e+07 3.16293e+07 2.87531e+07 2.8781e+07 2.88817e+07
          2.98148e+07 3.00212e+07 3.00743e+07 3.02657e+07 3.03933e+07 3.04409e+07 3.05102e+07 3.07718e+07 3.14034e+07 3.18754e+07 3.21532e+07 3.20544e+07
          2.93773e+07 2.94291e+07 2.97984e+07 3.02748e+07 3.03832e+07 3.04225e+07 3.05257e+07 3.06162e+07 3.06628e+07 3.07233e+07 3.10645e+07 3.18133e+07
          3.23199e+07 3.25903e+07 3.24464e+07 2.98857e+07 2.99447e+07 3.02786e+07 3.05331e+07 3.0646e+07 3.06904e+07 3.07718e+07 3.08401e+07 3.08885e+07
          3.09444e+07 3.13613e+07 3.21511e+07 3.2668e+07 3.28924e+07 3.28374e+07 3.01793e+07 3.0244e+07 3.04439e+07 3.07293e+07 3.08785e+07 3.09258e+07
          3.09979e+07 3.10585e+07 3.11035e+07 3.11575e+07 3.16148e+07 3.24859e+07 3.30147e+07 3.31869e+07 3.33673e+07 3.04183e+07 3.04762e+07 3.06559e+07
          3.09392e+07 3.1086e+07 3.11338e+07 3.1204e+07 3.12616e+07 3.13069e+07 3.13663e+07 3.1819e+07 3.27774e+07 3.33571e+07 3.34958e+07 3.3873e+07
          3.06223e+07 3.0687e+07 3.08313e+07 3.10936e+07 3.12743e+07 3.13262e+07 3.14013e+07 3.14621e+07 3.15209e+07 3.15943e+07 3.2231e+07 3.32548e+07
          3.36769e+07 3.38224e+07 3.42745e+07 3.08186e+07 3.08855e+07 3.10148e+07 3.12709e+07 3.14547e+07 3.15112e+07 3.15975e+07 3.16665e+07 3.17413e+07
          3.18251e+07 3.26812e+07 3.37438e+07 3.40072e+07 3.41807e+07 3.46665e+07 3.09993e+07 3.1061e+07 3.1215e+07 3.1484e+07 3.16352e+07 3.16991e+07
          3.17999e+07 3.18796e+07 3.19745e+07 3.20774e+07 3.30673e+07 3.41524e+07 3.43791e+07 3.45715e+07 3.49564e+07 3.11664e+07 3.12254e+07 3.13614e+07
          3.16307e+07 3.18223e+07 3.18877e+07 3.20006e+07 3.20929e+07 3.22076e+07 3.23439e+07 3.34907e+07 3.45117e+07 3.47622e+07 3.49378e+07 3.52163e+07
        </DataArray>
        <DataArray type="Float32" Name="pressure[2]" NumberOfComponents="1" format="ascii">
          2.11671e+07 2.11818e+07 2.21939e+07 2.30769e+07 2.34327e+07 2.38467e+07 2.39813e+07 2.40303e+07 2.40896e+07 2.41524e+07 2.43217e+07 2.46071e+07
          2.48266e+07 2.54283e+07 2.61393e+07 2.12116e+07 2.12263e+07 2.2348e+07 2.32836e+07 2.36337e+07 2.40435e+07 2.414e+07 2.41775e+07 2.42372e+07
          2.43075e+07 2.45483e+07 2.48433e+07 2.50145e+07 2.56248e+07 2.63042e+07 2.12565e+07 2.1271e+07 2.24148e+07 2.34533e+07 2.37706e+07 2.41504e+07
          2.42664e+07 2.43213e+07 2.43983e+07 2.44962e+07 2.48271e+07 2.51675e+07 2.53285e+07 2.58783e+07 2.65107e+07 2.13022e+07 2.13221e+07 2.22421e+07
          2.36004e+07 2.39135e+07 2.42965e+07 2.44398e+07 2.45229e+07 2.46343e+07 2.4776e+07 2.5195e+07 2.55759e+07 2.57267e+07 2.61724e+07 2.67645e+07
          2.13772e+07 2.14065e+07 1.9774e+07 2.37255e+07 2.43041e+07 2.48934e+07 2.49754e+07 2.50169e+07 2.50915e+07 2.53516e+07 2.56651e+07 2.60053e+07
          2.61253e+07 2.64968e+07 2.70124e+07 2.15622e+07 2.16057e+07 2.18521e+07 2.44529e+07 2.49585e+07 2.54181e+07 2.54859e+07 2.55632e+07 2.58705e+07
          2.66976e+07 2.65865e+07 2.64005e+07 2.64939e+07 2.68232e+07 2.72872e+07 2.1791e+07 2.18402e+07 2.25664e+07 2.51628e+07 2.55846e+07 2.59364e+07
          2.59938e+07 2.60596e+07 2.61269e+07 2.64204e+07 2.66069e+07 2.66576e+07 2.67656e+07 2.71656e+07 2.76617e+07 2.21102e+07 2.21633e+07 2.30763e+07
          2.56231e+07 2.61019e+07 2.63687e+07 2.64209e+07 2.64676e+07 2.65298e+07 2.66898e+07 2.68196e+07 2.68787e+07 2.70518e+07 2.75138e+07 2.81708e+07
          2.2554e+07 2.26118e+07 2.35223e+07 2.58741e+07 2.65776e+07 2.67995e+07 2.68843e+07 2.69649e+07 2.69478e+07 2.70025e+07 2.70582e+07 2.70911e+07
          2.7283e+07 2.78994e+07 2.86766e+07 2.31003e+07 2.31886e+07 2.40304e+07 2.49764e+07 2.69442e+07 2.71736e+07 2.73696e+07 2.75523e+07 2.7394e+07
          2.73417e+07 2.73435e+07 2.73667e+07 2.75968e+07 2.82926e+07 2.89852e+07 2.398e+07 2.44469e+07 2.49077e+07 2.54885e+07 2.72867e+07 2.74597e+07
          2.77768e+07 2.80552e+07 2.78535e+07 2.7728e+07 2.76705e+07 2.77284e+07 2.79212e+07 2.8645e+07 2.9551e+07 2.55977e+07 2.5755e+07 2.58732e+07
          2.62516e+07 2.76383e+07 2.7743e+07 2.81973e+07 2.85763e+07 2.86577e+07 2.84928e+07 2.84381e+07 2.84941e+07 2.89078e+07 2.94701e+07 3.02127e+07
          2.66497e+07 2.66832e+07 2.65706e+07 2.6935e+07 2.81052e+07 2.82093e+07 2.86973e+07 2.91294e+07 2.92251e+07 2.92567e+07 2.92689e+07 2.9463e+07
          2.99067e+07 3.06348e+07 3.07986e+07 2.74761e+07 2.75081e+07 2.72789e+07 2.81753e+07 2.8876e+07 2.8953e+07 2.9355e+07 2.9676e+07 2.97431e+07
          2.98278e+07 2.99121e+07 3.03352e+07 3.08916e+07 3.13298e+07 3.11806e+07 2.81479e+07 2.81497e+07 2.81672e+07 2.91934e+07 2.95846e+07 2.96418e+07
          2.99115e+07 3.01055e+07 3.0155e+07 3.02312e+07 3.03768e+07 3.1034e+07 3.15478e+07 3.17151e+07 3.16293e+07 2.87531e+07 2.8781e+07 2.88817e+07
          2.98148e+07 3.00212e+07 3.00743e+07 3.02657e+07 3.03933e+07 3.04409e+07 3.05102e+07 3.07718e+07 3.14034e+07 3.18754e+07 3.21532e+07 3.20544e+07
          2.93773e+07 2.94291e+07 2.97984e+07 3.02748e+07 3.03832e+07 3.04225e+07 3.05257e+07 3.06162e+07 3.06628e+07 3.07233e+07 3.10645e+07 3.18133e+07
          3.23199e+07 3.25903e+07 3.24464e+07 2.98857e+07 2.99447e+07 3.02786e+07 3.05331e+07 3.0646e+07 3.06904e+07 3.07718e+07 3.08401e+07 3.08885e+07
          3.09444e+07 3.13613e+07 3.21511e+07 3.2668e+07 3.28924e+07 3.28374e+07 3.01793e+07 3.0244e+07 3.04439e+07 3.07293e+07 3.08785e+07 3.09258e+07
          3.09979e+07 3.10585e+07 3.11035e+07 3.11575e+07 3.16148e+07 3.24859e+07 3.30147e+07 3.31869e+07 3.33673e+07 3.04183e+07 3.04762e+07 3.06559e+07
          3.09392e+07 3.1086e+07 3.11338e+07 3.1204e+07 3.12616e+07 3.13069e+07 3.13663e+07 3.1819e+07 3.27774e+07 3.33571e+07 3.34958e+07 3.3873e+07
          3.06223e+07 3.0687e+07 3.08313e+07 3.10936e+07 3.12743e+07 3.13262e+07 3.14013e+07 3.14621e+07 3.15209e+07 3.15943e+07 3.2231e+07 3.32548e+07
          3.36769e+07 3.38224e+07 3.42745e+07 3.08186e+07 3.08855e+07 3.10148e+07 3.12709e+07 3.14547e+07 3.15112e+07 3.15975e+07 3.16665e+07 3.17413e+07
          3.18251e+07 3.26812e+07 3.37438e+07 3.40072e+07 3.41807e+07 3.46665e+07 3.09993e+07 3.1061e+07 3.1215e+07 3.1484e+07 3.16352e+07 3.16991e+07
          3.17999e+07 3.18796e+07 3.19745e+07 3.20774e+07 3.30673e+07 3.41524e+07 3.43791e+07 3.45715e+07 3.49564e+07 3.11664e+07 3.12254e+07 3.13614e+07
          3.16307e+07 3.18223e+07 3.18877e+07 3.20006e+07 3.20929e+07 3.22076e+07 3.23439e+07 3.34907e+07 3.45117e+07 3.47622e+07 3.49378e+07 3.52163e+07
        </DataArray>
        <DataArray type="Float32" Name="velocity[0]" NumberOfComponents="1" format="ascii">
          -1.72157e-09 6.38621e-08 -1.50222e-10 -2.17376e-08 -7.39408e-10 -2.52222e-09 -3.53569e-09 -9.58e-10 -1.98298e-09 -2.79617e-09 -2.26008e-09 -3.33873e-09
          -2.48414e-09 -6.07332e-10 -2.48289e-09 -9.9297e-09 1.88956e-07 3.17009e-10 -7.48602e-08 -6.81954e-10 -5.26644e-10 -2.6169e-10 -1.29859e-09 -6.6018e-09
          -8.57837e-09 -4.87448e-09 -1.36694e-08 -8.66258e-09 -1.90977e-09 -6.58436e-09 -3.37914e-08 2.92646e-07 1.71507e-09 -8.3395e-08 2.76682e-11 1.66166e-09
          -3.12365e-10 -4.50883e-09 -1.42329e-08 -1.49526e-08 -6.17943e-09 -3.30818e-08 -1.14659e-08 -3.94525e-09 -9.80196e-09 -3.32907e-08 3.25202e-07 1.02039e-08
          -1.77806e-08 -2.00161e-09 -1.44613e-08 -2.94276e-08 -2.62914e-08 -2.38028e-08 -2.56201e-08 -8.20211e-09 -6.11076e-08 -7.88525e-09 -5.50357e-09 -1.31852e-08
          -6.97034e-08 6.77731e-08 3.57843e-09 -5.88628e-08 -8.24358e-09 -4.48841e-08 -6.41262e-08 -6.23504e-08 -2.80821e-08 -3.39049e-08 -1.72512e-08 -1.12616e-07
          -4.07847e-09 -4.93306e-09 -1.60302e-08 -1.32295e-07 -1.64781e-07 -6.79417e-09 -9.94478e-08 -1.44692e-08 -9.67599e-08 -6.68751e-08 -9.25278e-08 -1.55433e-08
          -1.4926e-08 -9.25218e-09 -1.27281e-07 -2.24971e-09 -3.83804e-09 -1.7845e-08 -1.36465e-07 -1.47191e-07 -2.52124e-09 -3.2677e-08 -1.33868e-08 -1.55557e-07
          -4.75026e-08 -1.40605e-07 -4.53826e-09 1.93482e-09 -7.10953e-10 -1.06188e-07 -1.57249e-09 -3.62162e-09 -1.90598e-08 -1.2475e-07 -1.35381e-07 -2.38926e-09
          -5.03976e-09 -8.36454e-09 -1.8509e-07 -2.68033e-08 -2.1289e-07 -4.87295e-09 -1.39098e-09 -1.01983e-08 -1.06907e-07 -1.18635e-09 -3.61732e-09 -2.04607e-08
          -1.12949e-07 -1.2175e-07 -3.57333e-09 1.34667e-09 -5.19906e-09 -1.93675e-07 -1.07064e-08 -2.77376e-07 -3.53682e-09 -1.78714e-09 -1.93988e-08 -9.85466e-08
          -1.07969e-09 -3.23483e-09 -2.2349e-08 -9.457e-08 -9.50723e-08 -1.50151e-08 3.74505e-10 -4.00987e-09 -1.96391e-07 -3.62451e-09 -3.39588e-07 -3.5442e-09
          -2.56519e-09 -3.76258e-08 -7.27898e-08 -1.89842e-09 -2.89205e-09 -2.42335e-08 -5.95099e-08 -6.69394e-08 -3.7739e-08 -2.78573e-09 -4.67032e-09 -1.99708e-07
          -1.24613e-09 -4.01799e-07 -4.65217e-09 -3.81309e-09 -4.31934e-08 -5.06996e-08 -4.32641e-09 -4.47616e-09 -2.54505e-08 -3.3416e-08 -5.63844e-08 -5.0467e-08
          -2.37069e-09 -7.18147e-09 -2.04709e-07 -1.04134e-09 -4.36282e-07 -1.29698e-08 -4.51089e-09 -3.37913e-08 -3.6598e-08 -1.08228e-08 -6.98802e-09 -2.60927e-08
          -2.93833e-08 -5.75751e-08 -4.12887e-08 -2.12006e-09 -1.1772e-08 -1.94269e-07 -1.47441e-09 -4.36377e-07 -3.83566e-08 -5.32546e-09 -2.37129e-08 -1.7787e-08
          -2.19654e-08 -1.12089e-08 -2.63317e-08 -3.22892e-08 -6.68851e-08 -2.5075e-08 -2.36695e-09 -1.69028e-08 -1.78212e-07 -1.48842e-09 -4.05463e-07 -6.76879e-08
          -1.0144e-08 -1.40339e-08 -5.36629e-09 -2.6663e-08 -2.07972e-08 -2.50008e-08 -4.02884e-08 -6.38033e-08 -1.38814e-08 -2.32522e-09 -2.20692e-08 -1.7363e-07
          -1.04022e-09 -3.63176e-07 -8.15481e-08 -1.76284e-08 -1.02062e-08 -2.88854e-09 -2.49053e-08 -3.28055e-08 -2.21778e-08 -4.96842e-08 -5.10895e-08 -6.44469e-09
          -2.7607e-09 -2.75601e-08 -1.70233e-07 -1.26463e-09 -3.06886e-07 -8.48635e-08 -2.55672e-08 -6.5311e-09 -3.98542e-09 -2.8275e-08 -4.84855e-08 -1.8611e-08
          -5.28145e-08 -4.03501e-08 -3.02767e-09 -3.65613e-09 -3.89203e-08 -1.48368e-07 -2.44812e-09 -2.42554e-07 -8.52718e-08 -4.00577e-08 -2.82776e-09 -3.9614e-09
          -2.3179e-08 -7.21274e-08 -1.47564e-08 -5.15021e-08 -3.19923e-08 -1.3065e-09 -2.43806e-09 -5.72718e-08 -1.06368e-07 -3.76596e-09 -1.85644e-07 -9.20465e-08
          -6.04199e-08 -2.02618e-09 -2.68421e-09 -1.50747e-08 -9.43998e-08 -1.151e-08 -4.61875e-08 -2.26966e-08 -9.36285e-10 -9.9681e-10 -7.0954e-08 -6.74554e-08
          -3.96224e-09 -1.32727e-07 -9.21175e-08 -9.51363e-08 -1.17734e-09 -2.21513e-09 -1.97572e-08 -1.08019e-07 -1.00781e-08 -3.82027e-08 -1.52581e-08 -1.15501e-09
          -4.76181e-10 -7.57179e-08 -3.84034e-08 -3.31075e-09 -9.71597e-08 -5.96565e-08 -1.65306e-07 -2.07126e-09 -3.16204e-09 -2.9377e-08 -1.1467e-07 -1.08545e-08
          -2.91537e-08 -1.02813e-08 -1.0773e-09 -1.12454e-10 -7.05004e-08 -2.01262e-08 -2.84424e-09 -7.64658e-08 -2.49958e-08 -2.2966e-07 -3.25654e-09 -5.83293e-09
          -3.57134e-08 -1.19945e-07 -1.24824e-08 -1.83203e-08 -5.23709e-09 -1.73094e-09 -6.60094e-10 -5.22018e-08 -1.37322e-08 -2.7894e-09 -7.23808e-08 -1.35832e-08
          -2.42959e-07 -2.96851e-09 -1.11905e-08 -3.91074e-08 -1.25303e-07 -1.55015e-08 -8.54473e-09 -2.09064e-09 -7.79801e-10 -4.3551e-10 -2.6125e-08 -1.02857e-08
          -2.29574e-09 -7.6607e-08 -1.09633e-08 -2.09423e-07 -4.11768e-09 -1.9286e-08 -5.13871e-08 -1.30654e-07 -2.02541e-08 -2.2626e-09 -4.70447e-10 1.75326e-10
          6.77972e-11 -6.18932e-09 -3.93267e-09 -8.4177e-10 -3.90939e-08 -5.1097e-09 -9.05625e-08 -2.71709e-09 -1.17004e-08 -3.07124e-08 -6.71776e-08 -1.13755e-08
        </DataArray>
        <DataArray type="Float32" Name="velocity[1]" NumberOfComponents="1" format="ascii">
          2.67552e-25 1.03562e-23 5.71375e-26 -3.37829e-24 1.14913e-25 0 5.49488e-25 1.19709e-25 -7.46894e-26 5.50817e-24 -3.42161e-24 -3.25061e-26
          2.16792e-24 -9.36621e-25 3.86765e-25 1.00809e-24 9.16138e-24 5.11555e-26 -4.87758e-24 -8.63615e-26 8.73807e-24 1.29481e-24 2.05002e-25 -8.55587e-24
          2.58754e-26 0 1.13319e-26 -5.24228e-26 -8.42896e-27 2.51545e-25 2.70029e-24 -1.34796e-23 -3.43926e-24 3.55117e-24 7.71073e-26 0
          1.14304e-24 6.1403e-25 -7.7632e-25 0 6.3882e-24 -1.07611e-23 0 9.8535e-25 -2.44166e-25 -5.67284e-24 2.38005e-23 -2.36058e-24
          2.35374e-24 6.8787e-25 1.0998e-23 -2.05798e-23 2.68289e-23 -1.87703e-24 -1.40413e-24 3.35128e-24 -3.90839e-24 2.4682e-24 -1.10239e-24 8.30162e-25
          -9.3984e-26 -7.6937e-23 3.57993e-24 4.26223e-24 5.03004e-26 -2.43275e-24 -2.91508e-25 1.86129e-25 4.70959e-24 -5.23495e-24 5.58753e-24 -9.06824e-24
          4.85024e-26 1.30521e-25 -1.32807e-24 -1.11288e-25 4.65353e-24 -2.56671e-25 3.93775e-24 -7.01893e-26 -3.61897e-24 0 -1.57068e-24 1.74064e-24
          -1.03293e-23 -1.53044e-23 1.4709e-23 -1.0792e-24 5.628e-25 1.33167e-24 -7.37433e-25 2.7729e-25 0 3.58424e-24 -5.23147e-25 -1.13022e-23
          1.25264e-24 -1.47656e-24 3.90773e-26 -3.53175e-27 3.21594e-25 2.3127e-25 -1.23619e-25 1.53925e-26 -1.44525e-24 -3.04509e-25 1.00691e-23 1.086e-24
          1.33911e-24 -2.07819e-26 1.27133e-23 2.30355e-25 1.85512e-26 4.7243e-25 9.54188e-26 -1.28125e-24 -7.81618e-24 1.01762e-25 -2.44832e-25 1.66297e-24
          -5.67789e-25 -7.1483e-24 -1.7244e-25 -1.59766e-24 -1.79463e-25 1.96617e-24 0 0 3.33416e-25 -1.04357e-25 2.38626e-25 2.77708e-24
          1.73748e-25 6.60316e-26 1.11045e-27 -8.44897e-24 4.24295e-24 1.52573e-24 -7.18752e-25 -2.2194e-24 2.51919e-24 -4.74715e-24 5.27942e-24 -3.04909e-25
          -9.49815e-27 2.62022e-25 3.25583e-24 -6.82675e-25 0 -1.81032e-24 -1.62862e-25 -1.79892e-25 1.90943e-24 -2.25579e-25 2.15088e-24 -5.01535e-27
          -3.14878e-24 8.76893e-24 5.10191e-26 4.42217e-26 -6.48352e-25 3.07981e-24 1.26562e-24 -8.6335e-26 4.31675e-26 -2.19303e-24 1.40551e-24 -7.81186e-26
          1.10923e-25 -1.32964e-24 -1.60484e-23 2.59106e-26 9.74468e-25 -2.26744e-24 1.94456e-26 5.71414e-25 1.44486e-24 -5.703e-25 7.22483e-25 -5.58168e-26
          2.37288e-24 4.02475e-24 0 -1.46287e-26 4.33719e-25 1.90072e-24 4.50521e-26 -9.59001e-25 -2.7566e-24 6.64833e-27 -1.37635e-24 -6.06859e-25
          1.02609e-24 -6.09489e-25 -3.38296e-28 2.7115e-25 -2.75623e-27 5.07213e-25 -4.82665e-26 2.44811e-27 1.36425e-23 -3.71151e-26 -3.84787e-24 5.13965e-24
          -1.17634e-24 1.3618e-24 1.70152e-24 -3.41093e-24 4.83728e-28 -1.84867e-24 -2.63695e-24 -4.45551e-24 2.77163e-27 1.95796e-25 4.37224e-25 -6.63147e-28
          -3.04393e-26 -6.68271e-24 1.75728e-24 0 0 2.27125e-25 2.9281e-24 -3.93654e-25 3.44695e-24 0 9.59324e-25 0
          -2.63475e-25 4.17406e-25 -4.29692e-28 6.5316e-26 -6.01965e-24 8.88785e-28 4.49703e-28 4.66526e-28 3.15796e-24 8.20225e-30 -9.33901e-25 -1.59767e-24
          -6.93634e-29 7.1004e-25 4.46939e-28 -4.1979e-26 1.34987e-24 -7.69907e-24 0 -7.94891e-24 0 1.02791e-29 2.33326e-24 -2.88485e-24
          -1.29775e-24 1.37837e-28 9.98834e-25 0 2.78059e-24 0 3.04935e-25 1.31166e-24 3.75501e-24 8.52914e-26 -4.86682e-24 -4.18044e-24
          -1.61068e-24 1.36023e-25 3.82577e-26 8.70801e-29 -1.32689e-24 -7.89955e-25 3.27721e-24 -1.68943e-24 1.8289e-24 -1.48356e-24 6.24114e-25 6.49607e-24
          -5.48181e-26 -3.35694e-24 7.72821e-24 4.14374e-24 -2.49373e-24 5.37846e-26 6.89295e-25 -2.75772e-28 7.76301e-25 2.53024e-28 -2.98246e-24 6.47672e-25
          -1.35351e-24 2.32985e-25 -2.00774e-24 -9.19579e-26 -4.3402e-24 -3.90743e-24 7.12269e-24 2.02927e-25 2.66511e-24 8.05693e-25 -2.68921e-25 -6.41982e-25
          -7.89071e-25 4.73624e-25 0 -3.06617e-26 -9.27547e-25 3.36177e-24 -5.90924e-24 5.91108e-24 -4.29329e-24 1.13369e-27 0 0
          1.79176e-25 -4.71886e-28 1.02928e-24 -8.94559e-25 -9.41883e-25 8.67532e-25 -1.45656e-24 -6.01238e-25 -9.86794e-25 1.6867e-26 4.11085e-25 -2.80759e-24
          1.01095e-23 -1.91467e-25 -4.84708e-24 3.48133e-25 7.01794e-25 -1.78778e-29 -6.2438e-25 -2.60499e-28 -3.31619e-28 8.76136e-26 -2.13685e-24 3.76676e-25
          -9.51433e-26 7.66626e-24 -3.18244e-24 0 -2.046e-25 -6.39279e-25 4.93965e-24 -5.75651e-25 0 -3.51913e-25 -3.05032e-28 -2.86466e-25
          4.85437e-25 -9.61391e-25 -1.62112e-24 -2.63007e-25 -2.03785e-24 7.94108e-25 -2.19984e-23 0 2.19885e-23 -1.61054e-23 1.32896e-23 3.3441e-25
        </DataArray>
        <DataArray type="Float32" Name="velocity[2]" NumberOfComponents="1" format="ascii">
          -2.1965e-10 8.3745e-09 -5.92249e-09 -8.59325e-09 -3.77006e-09 -3.95705e-09 -3.9564e-09 -3.39979e-09 -3.46984e-09 -3.41851e-09 -3.09231e-09 -2.96766e-09
          -2.49931e-09 -1.8985e-09 -1.26353e-09 -1.34054e-09 3.11925e-08 -5.04319e-09 -1.67854e-08 -2.22165e-09 -2.48317e-09 -2.86511e-09 -3.26421e-09 -4.09266e-09
          -4.19725e-09 -3.42222e-09 -4.55212e-09 -3.03031e-09 -1.50896e-09 -1.69374e-09 -4.81634e-09 5.17865e-08 -1.68113e-09 -1.798e-08 -4.50148e-09 -4.12765e-09
          -4.21403e-09 -4.68547e-09 -6.0434e-09 -5.73914e-09 -3.96883e-09 -7.95692e-09 -3.48191e-09 -1.97518e-09 -2.25677e-09 -7.1109e-09 5.53579e-08 -3.16411e-10
          -7.88351e-09 -7.01209e-09 -8.4802e-09 -9.88883e-09 -8.27352e-09 -6.986e-09 -6.87033e-09 -3.65503e-09 -1.22822e-08 -2.45506e-09 -2.18645e-09 -2.91566e-09
          -8.63149e-09 1.68418e-08 1.09789e-09 -1.32802e-08 -5.50495e-09 -1.09919e-08 -1.33499e-08 -1.23041e-08 -6.72858e-09 -8.47718e-09 -5.65472e-09 -2.14343e-08
          -1.04393e-09 -1.42988e-09 -3.17665e-09 -2.27267e-08 -2.85955e-08 -1.82476e-09 -2.06829e-08 -7.79382e-09 -2.086e-08 -1.51324e-08 -1.99722e-08 -6.5091e-09
          -4.44499e-09 1.44119e-11 -2.1292e-08 -6.4596e-10 -1.10228e-09 -3.39412e-09 -2.43796e-08 -2.67601e-08 -1.45186e-09 -7.98529e-09 -5.94992e-09 -3.02374e-08
          -1.06953e-08 -2.6372e-08 -1.46194e-09 -4.93102e-10 -4.95793e-10 -1.88356e-08 -5.2207e-10 -9.37914e-10 -3.51127e-09 -2.23724e-08 -2.48765e-08 -1.65636e-09
          -2.32433e-09 -3.23532e-09 -3.43016e-08 -6.52736e-09 -3.87097e-08 -1.15639e-09 -6.58156e-10 -2.19028e-09 -1.92314e-08 -6.94547e-10 -1.22659e-09 -3.91812e-09
          -2.02319e-08 -2.24165e-08 -1.79974e-09 -9.49761e-10 -2.27894e-09 -3.54448e-08 -3.20193e-09 -4.9602e-08 -6.13907e-10 -3.66765e-10 -3.10141e-09 -1.72577e-08
          -6.82531e-10 -1.13824e-09 -4.2538e-09 -1.75776e-08 -1.94267e-08 -5.25902e-09 -1.54383e-09 -2.22774e-09 -3.61518e-08 -2.21348e-09 -6.06039e-08 -4.29294e-10
          -2.41215e-10 -5.76622e-09 -1.23722e-08 -9.26236e-10 -1.11318e-09 -4.58353e-09 -1.18748e-08 -1.49186e-08 -9.08658e-09 -1.89216e-09 -2.19289e-09 -3.64002e-08
          -1.26758e-09 -7.1157e-08 -3.44558e-10 -1.55325e-10 -7.4703e-09 -9.5202e-09 -1.58254e-09 -1.23945e-09 -4.58036e-09 -6.24146e-09 -1.08667e-08 -1.00085e-08
          -1.50442e-09 -2.27475e-09 -3.69263e-08 -9.25999e-10 -7.75026e-08 -2.23558e-09 -2.93265e-10 -5.7235e-09 -7.0248e-09 -2.72746e-09 -1.61316e-09 -4.72074e-09
          -5.10359e-09 -9.70279e-09 -7.37107e-09 -1.2947e-09 -2.84517e-09 -3.54491e-08 -2.01771e-09 -7.88637e-08 -7.78111e-09 -8.64306e-10 -4.47495e-09 -4.4315e-09
          -5.3362e-09 -2.4472e-09 -4.59893e-09 -5.57605e-09 -1.13867e-08 -4.41549e-09 -9.76634e-10 -3.40684e-09 -3.18994e-08 -9.28989e-10 -7.2817e-08 -1.32326e-08
          -2.2318e-09 -2.97912e-09 -1.82096e-09 -5.84868e-09 -3.9006e-09 -4.00531e-09 -6.68392e-09 -1.07391e-08 -2.66533e-09 -1.03773e-09 -4.3794e-09 -3.09905e-08
          -5.98376e-10 -6.49286e-08 -1.56011e-08 -4.05695e-09 -2.63236e-09 -1.36605e-09 -5.24322e-09 -5.66769e-09 -3.37195e-09 -8.55091e-09 -8.8976e-09 -1.58045e-09
          -1.14583e-09 -5.34493e-09 -3.04835e-08 -8.00871e-10 -5.57141e-08 -1.75347e-08 -6.83658e-09 -3.51194e-09 -3.20696e-09 -7.20364e-09 -8.89811e-09 -2.63051e-09
          -9.31372e-09 -7.34503e-09 -1.04281e-09 -1.19112e-09 -6.93342e-09 -2.66673e-08 -1.81425e-09 -4.48155e-08 -1.78029e-08 -9.47198e-09 -2.53289e-09 -2.82537e-09
          -6.84031e-09 -1.37389e-08 -1.9675e-09 -9.1684e-09 -6.00469e-09 -8.82539e-10 -1.2556e-09 -1.04798e-08 -1.96812e-08 -2.64404e-09 -3.55235e-08 -1.94163e-08
          -1.29806e-08 -2.29698e-09 -2.44817e-09 -4.62397e-09 -1.71722e-08 -1.58129e-09 -8.41053e-09 -4.81206e-09 -1.18516e-09 -1.12724e-09 -1.32471e-08 -1.31699e-08
          -2.73717e-09 -2.60287e-08 -1.98845e-08 -1.9883e-08 -2.3668e-09 -2.59684e-09 -5.4153e-09 -1.98357e-08 -1.74756e-09 -7.00003e-09 -3.31633e-09 -9.74077e-10
          -9.30871e-10 -1.4187e-08 -8.16998e-09 -2.59259e-09 -1.95217e-08 -1.47888e-08 -3.30932e-08 -2.39383e-09 -2.42591e-09 -6.62526e-09 -2.10578e-08 -2.20202e-09
          -5.47937e-09 -2.64263e-09 -1.1312e-09 -9.10282e-10 -1.36306e-08 -5.31715e-09 -2.52522e-09 -1.56914e-08 -7.36766e-09 -4.32876e-08 -2.63098e-09 -3.01039e-09
          -8.11989e-09 -2.22775e-08 -2.45551e-09 -3.61435e-09 -1.79112e-09 -1.25744e-09 -1.03611e-09 -1.07653e-08 -4.68762e-09 -2.80306e-09 -1.50008e-08 -4.6752e-09
          -4.54438e-08 -3.34512e-09 -4.56676e-09 -9.10107e-09 -2.38747e-08 -3.48531e-09 -1.77482e-09 -9.62416e-10 -8.87001e-10 -9.53187e-10 -6.24516e-09 -4.29859e-09
          -3.01925e-09 -1.60971e-08 -4.52485e-09 -4.06959e-08 -5.54149e-09 -7.88601e-09 -1.26302e-08 -2.53209e-08 -4.40389e-09 -5.49931e-10 -4.08495e-10 -3.03232e-10
          -3.03955e-10 -1.73434e-09 -1.85038e-09 -1.51162e-09 -9.32185e-09 -4.67908e-09 -2.36738e-08 -1.01446e-08 -8.88036e-09 -1.01158e-08 -1.40908e-08 -2.36451e-09
        </DataArray>
        <DataArray type="Float32" Name="z[0]" NumberOfComponents="1" format="ascii">
          0.150578 0.150579 0.15058 0.150582 0.150582 0.150583 0.150584 0.150585 0.150585 0.150586 0.150587 0.150588
          0.150589 0.150591 0.150596 0.150581 0.150582 0.150583 0.150585 0.150586 0.150587 0.150587 0.150588 0.150588
          0.150589 0.15059 0.150591 0.150593 0.150595 0.150599 0.150584 0.150585 0.150587 0.150588 0.150589 0.15059
          0.150606 0.152622 0.150592 0.150593 0.150593 0.150595 0.150596 0.150598 0.150602 0.150588 0.150589 0.15059
          0.150591 0.164652 0.260757 0.363404 0.378878 0.150595 0.150596 0.150597 0.150598 0.150599 0.150601 0.150605
          0.150591 0.150592 0.227626 0.433605 0.44534 0.45098 0.42909 0.399394 0.150598 0.150599 0.1506 0.150601
          0.150602 0.150604 0.150609 0.150594 0.150595 0.225017 0.464988 0.477697 0.478921 0.462371 0.436931 0.155353
          0.150602 0.150603 0.150604 0.150605 0.150607 0.150612 0.150597 0.150601 0.230359 0.472875 0.48645 0.489728