<?xml version="1.0"?>
<VTKFile type="UnstructuredGrid" version="0.1" byte_order="LittleEndian">
  <UnstructuredGrid>
    <Piece NumberOfCells="360" NumberOfPoints="800">
      <CellData Scalars="pressure[0]">
        <DataArray type="Float32" Name="pressure[0]" NumberOfComponents="1" format="ascii">
          2.09108e+07 2.09253e+07 2.14158e+07 2.19327e+07 2.23097e+07 2.27583e+07 2.29038e+07 2.29564e+07 2.30204e+07 2.30909e+07 2.33094e+07 2.36729e+07
          2.39429e+07 2.46094e+07 2.53864e+07 2.09546e+07 2.09691e+07 2.151e+07 2.20471e+07 2.2464e+07 2.29373e+07 2.30456e+07 2.30864e+07 2.31531e+07
          2.32351e+07 2.35483e+07 2.39199e+07 2.41334e+07 2.48113e+07 2.55541e+07 2.09985e+07 2.1013e+07 2.15795e+07 2.21844e+07 2.25518e+07 2.29956e+07
          2.31278e+07 2.31895e+07 2.32806e+07 2.3399e+07 2.38335e+07 2.42653e+07 2.44623e+07 2.50723e+07 2.57686e+07 2.10429e+07 2.10579e+07 2.1446e+07
          2.23155e+07 2.26701e+07 2.30926e+07 2.32136e+07 2.32698e+07 2.34215e+07 2.36248e+07 2.42144e+07 2.46899e+07 2.48667e+07 2.53786e+07 2.60366e+07
          2.11324e+07 2.1157e+07 1.97743e+07 2.24094e+07 2.28376e+07 2.32921e+07 2.3374e+07 2.34174e+07 2.36965e+07 2.41231e+07 2.46708e+07 2.50934e+07
          2.52648e+07 2.57222e+07 2.62989e+07 2.1327e+07 2.137e+07 2.18695e+07 2.28233e+07 2.3094e+07 2.38344e+07 2.39111e+07 2.39735e+07 2.42466e+07
          2.47024e+07 2.51935e+07 2.54495e+07 2.56332e+07 2.60694e+07 2.65925e+07 2.15749e+07 2.16245e+07 2.24805e+07 2.32945e+07 2.39482e+07 2.44754e+07
          2.45555e+07 2.46419e+07 2.48051e+07 2.5269e+07 2.56572e+07 2.57584e+07 2.5934e+07 2.64428e+07 2.70011e+07 2.19288e+07 2.19822e+07 2.30225e+07
          2.38219e+07 2.4581e+07 2.50617e+07 2.51212e+07 2.51815e+07 2.53376e+07 2.57028e+07 2.59564e+07 2.603e+07 2.62673e+07 2.68244e+07 2.75647e+07
          2.24416e+07 2.2504e+07 2.34967e+07 2.43042e+07 2.52478e+07 2.55742e+07 2.56858e+07 2.57984e+07 2.59198e+07 2.61413e+07 2.62619e+07 2.6289e+07
          2.65359e+07 2.7251e+07 2.81254e+07 2.30646e+07 2.31664e+07 2.38037e+07 2.44212e+07 2.5792e+07 2.60174e+07 2.62643e+07 2.64951e+07 2.654e+07
          2.65903e+07 2.66309e+07 2.66574e+07 2.69174e+07 2.76776e+07 2.84576e+07 2.39879e+07 2.41191e+07 2.44069e+07 2.48337e+07 2.61702e+07 2.63375e+07
          2.67273e+07 2.70605e+07 2.70687e+07 2.70266e+07 2.70061e+07 2.70414e+07 2.72604e+07 2.80278e+07 2.87047e+07 2.46635e+07 2.47183e+07 2.49154e+07
          2.52754e+07 2.65408e+07 2.66492e+07 2.71927e+07 2.76271e+07 2.7662e+07 2.74315e+07 2.73968e+07 2.74192e+07 2.76381e+07 2.83867e+07 2.94543e+07
          2.52224e+07 2.53608e+07 2.54593e+07 2.58208e+07 2.70628e+07 2.71804e+07 2.77585e+07 2.82572e+07 2.83477e+07 2.81938e+07 2.79582e+07 2.8351e+07
          2.8957e+07 2.99433e+07 3.01744e+07 2.63022e+07 2.63508e+07 2.62214e+07 2.66028e+07 2.79317e+07 2.80473e+07 2.85231e+07 2.88946e+07 2.8962e+07
          2.90169e+07 2.90303e+07 2.95482e+07 3.02691e+07 3.08344e+07 3.06057e+07 2.71169e+07 2.71167e+07 2.71668e+07 2.82694e+07 2.8797e+07 2.88621e+07
          2.91764e+07 2.94028e+07 2.94541e+07 2.95328e+07 2.96829e+07 3.04773e+07 3.10973e+07 3.12767e+07 3.11212e+07 2.78316e+07 2.7853e+07 2.79625e+07
          2.90524e+07 2.93055e+07 2.93611e+07 2.9584e+07 2.97299e+07 2.97797e+07 2.9855e+07 3.01551e+07 3.09071e+07 3.14665e+07 3.17819e+07 3.16079e+07
          2.85657e+07 2.86154e+07 2.89236e+07 2.95829e+07 2.97164e+07 2.97547e+07 2.98684e+07 2.99687e+07 3.0017e+07 3.00808e+07 3.04826e+07 3.13762e+07
          3.19775e+07 3.22841e+07 3.20537e+07 2.91542e+07 2.92139e+07 2.95848e+07 2.98734e+07 2.99998e+07 3.00439e+07 3.01331e+07 3.02083e+07 3.02587e+07
          3.03168e+07 3.08114e+07 3.17555e+07 3.23694e+07 3.26192e+07 3.24981e+07 2.94704e+07 2.95369e+07 2.97582e+07 3.00808e+07 3.02474e+07 3.0295e+07
          3.03738e+07 3.04406e+07 3.04868e+07 3.05427e+07 3.10866e+07 3.213e+07 3.27585e+07 3.29445e+07 3.31128e+07 2.97229e+07 2.97816e+07 2.99808e+07
          3.03014e+07 3.04652e+07 3.05133e+07 3.05902e+07 3.06538e+07 3.07003e+07 3.07627e+07 3.13016e+07 3.24515e+07 3.3142e+07 3.32875e+07 3.36976e+07
          2.99346e+07 3.00014e+07 3.01597e+07 3.04561e+07 3.06597e+07 3.07129e+07 3.0796e+07 3.08638e+07 3.09266e+07 3.1006e+07 3.17684e+07 3.29984e+07
          3.3498e+07 3.36519e+07 3.41538e+07 3.01373e+07 3.02066e+07 3.03476e+07 3.06373e+07 3.08448e+07 3.09035e+07 3.10004e+07 3.10786e+07 3.11606e+07
          3.12524e+07 3.2282e+07 3.35598e+07 3.3867e+07 3.4055e+07 3.45983e+07 3.03218e+07 3.03851e+07 3.05551e+07 3.08604e+07 3.10299e+07 3.10976e+07
          3.12123e+07 3.13034e+07 3.141e+07 3.1525e+07 3.27176e+07 3.40237e+07 3.42867e+07 3.44976e+07 3.49176e+07 3.04902e+07 3.05504e+07 3.06994e+07
          3.10056e+07 3.1223e+07 3.12926e+07 3.1422e+07 3.15284e+07 3.16591e+07 3.18147e+07 3.31986e+07 3.44272e+07 3.47193e+07 3.491e+07 3.52e+07
        </DataArray>
        <DataArray type="Float32" Name="pressure[1]" NumberOfComponents="1" format="ascii">
          2.09108e+07 2.09253e+07 2.14158e+07 2.19327e+07 2.23097e+07 2.27583e+07 2.29038e+07 2.29564e+07 2.30204e+07 2.30909e+07 2.33094e+07 2.36729e+07
          2.39429e+07 2.46094e+07 2.53864e+07 2.09546e+07 2.09691e+07 2.151e+07 2.20471e+07 2.2464e+07 2.29373e+07 2.30456e+07 2.30864e+07 2.31531e+07
          2.32351e+07 2.35483e+07 2.39199e+07 2.41334e+07 2.48113e+07 2.55541e+07 2.09985e+07 2.1013e+07 2.15795e+07 2.21844e+07 2.25518e+07 2.29956e+07
          2.31278e+07 2.31895e+07 2.32806e+07 2.3399e+07 2.38335e+07 2.42653e+07 2.44623e+07 2.50723e+07 2.57686e+07 2.10429e+07 2.10579e+07 2.1446e+07
          2.23155e+07 2.26701e+07 2.30926e+07 2.32136e+07 2.32698e+07 2.34215e+07 2.36248e+07 2.42144e+07 2.46899e+07 2.48667e+07 2.53786e+07 2.60366e+07
          2.11324e+07 2.1157e+07 1.97743e+07 2.24094e+07 2.28376e+07 2.32921e+07 2.3374e+07 2.34174e+07 2.36965e+07 2.41231e+07 2.46708e+07 2.50934e+07
          2.52648e+07 2.57222e+07 2.62989e+07 2.1327e+07 2.137e+07 2.18695e+07 2.28233e+07 2.3094e+07 2.38344e+07 2.39111e+07 2.39735e+07 2.42466e+07
          2.47024e+07 2.51935e+07 2.54495e+07 2.56332e+07 2.60694e+07 2.65925e+07 2.15749e+07 2.16245e+07 2.24805e+07 2.32945e+07 2.39482e+07 2.44754e+07
          2.45555e+07 2.46419e+07 2.48051e+07 2.5269e+07 2.56572e+07 2.57584e+07 2.5934e+07 2.64428e+07 2.70011e+07 2.19288e+07 2.19822e+07 2.30225e+07
          2.38219e+07 2.4581e+07 2.50617e+07 2.51212e+07 2.51815e+07 2.53376e+07 2.57028e+07 2.59564e+07 2.603e+07 2.62673e+07 2.68244e+07 2.75647e+07
          2.24416e+07 2.2504e+07 2.34967e+07 2.43042e+07 2.52478e+07 2.55742e+07 2.56858e+07 2.57984e+07 2.59198e+07 2.61413e+07 2.62619e+07 2.6289e+07
          2.65359e+07 2.7251e+07 2.81254e+07 2.30646e+07 2.31664e+07 2.38037e+07 2.44212e+07 2.5792e+07 2.60174e+07 2.62643e+07 2.64951e+07 2.654e+07
          2.65903e+07 2.66309e+07 2.66574e+07 2.69174e+07 2.76776e+07 2.84576e+07 2.39879e+07 2.41191e+07 2.44069e+07 2.48337e+07 2.61702e+07 2.63375e+07
          2.67273e+07 2.70605e+07 2.70687e+07 2.70266e+07 2.70061e+07 2.70414e+07 2.72604e+07 2.80278e+07 2.87047e+07 2.46635e+07 2.47183e+07 2.49154e+07
          2.52754e+07 2.65408e+07 2.66492e+07 2.71927e+07 2.76271e+07 2.7662e+07 2.74315e+07 2.73968e+07 2.74192e+07 2.76381e+07 2.83867e+07 2.94543e+07
          2.52224e+07 2.53608e+07 2.54593e+07 2.58208e+07 2.70628e+07 2.71804e+07 2.77585e+07 2.82572e+07 2.83477e+07 2.81938e+07 2.79582e+07 2.8351e+07
          2.8957e+07 2.99433e+07 3.01744e+07 2.63022e+07 2.63508e+07 2.62214e+07 2.66028e+07 2.79317e+07 2.80473e+07 2.85231e+07 2.88946e+07 2.8962e+07
          2.90169e+07 2.90303e+07 2.95482e+07 3.02691e+07 3.08344e+07 3.06057e+07 2.71169e+07 2.71167e+07 2.71668e+07 2.82694e+07 2.8797e+07 2.88621e+07
          2.91764e+07 2.94028e+07 2.94541e+07 2.95328e+07 2.96829e+07 3.04773e+07 3.10973e+07 3.12767e+07 3.11212e+07 2.78316e+07 2.7853e+07 2.79625e+07
          2.90524e+07 2.93055e+07 2.93611e+07 2.9584e+07 2.97299e+07 2.97797e+07 2.9855e+07 3.01551e+07 3.09071e+07 3.14665e+07 3.17819e+07 3.16079e+07
          2.85657e+07 2.86154e+07 2.89236e+07 2.95829e+07 2.97164e+07 2.97547e+07 2.98684e+07 2.99687e+07 3.0017e+07 3.00808e+07 3.04826e+07 3.13762e+07
          3.19775e+07 3.22841e+07 3.20537e+07 2.91542e+07 2.92139e+07 2.95848e+07 2.98734e+07 2.99998e+07 3.00439e+07 3.01331e+07 3.02083e+07 3.02587e+07
          3.03168e+07 3.08114e+07 3.17555e+07 3.23694e+07 3.26192e+07 3.24981e+07 2.94704e+07 2.95369e+07 2.97582e+07 3.00808e+07 3.02474e+07 3.0295e+07
          3.03738e+07 3.04406e+07 3.04868e+07 3.05427e+07 3.10866e+07 3.213e+07 3.27585e+07 3.29445e+07 3.31128e+07 2.97229e+07 2.97816e+07 2.99808e+07
          3.03014e+07 3.04652e+07 3.05133e+07 3.05902e+07 3.06538e+07 3.07003e+07 3.07627e+07 3.13016e+07 3.24515e+07 3.3142e+07 3.32875e+07 3.36976e+07
          2.99346e+07 3.00014e+07 3.01597e+07 3.04561e+07 3.06597e+07 3.07129e+07 3.0796e+07 3.08638e+07 3.09266e+07 3.1006e+07 3.17684e+07 3.29984e+07
          3.3498e+07 3.36519e+07 3.41538e+07 3.01373e+07 3.02066e+07 3.03476e+07 3.06373e+07 3.08448e+07 3.09035e+07 3.10004e+07 3.10786e+07 3.11606e+07
          3.12524e+07 3.2282e+07 3.35598e+07 3.3867e+07 3.4055e+07 3.45983e+07 3.03218e+07 3.03851e+07 3.05551e+07 3.08604e+07 3.10299e+07 3.10976e+07
          3.12123e+07 3.13034e+07 3.141e+07 3.1525e+07 3.27176e+07 3.40237e+07 3.42867e+07 3.44976e+07 3.49176e+07 3.04902e+07 3.05504e+07 3.06994e+07
          3.10056e+07 3.1223e+07 3.12926e+07 3.1422e+07 3.15284e+07 3.16591e+07 3.18147e+07 3.31986e+07 3.44272e+07 3.47193e+07 3.491e+07 3.52e+07
        </DataArray>
        <DataArray type="Float32" Name="pressure[2]" NumberOfComponents="1" format="ascii">
          2.09108e+07 2.09253e+07 2.14158e+07 2.19327e+07 2.23097e+07 2.27583e+07 2.29038e+07 2.29564e+07 2.30204e+07 2.30909e+07 2.33094e+07 2.36729e+07
          2.39429e+07 2.46094e+07 2.53864e+07 2.09546e+07 2.09691e+07 2.151e+07 2.20471e+07 2.2464e+07 2.29373e+07 2.30456e+07 2.30864e+07 2.31531e+07
          2.32351e+07 2.35483e+07 2.39199e+07 2.41334e+07 2.48113e+07 2.55541e+07 2.09985e+07 2.1013e+07 2.15795e+07 2.21844e+07 2.25518e+07 2.29956e+07
          2.31278e+07 2.31895e+07 2.32806e+07 2.3399e+07 2.38335e+07 2.42653e+07 2.44623e+07 2.50723e+07 2.57686e+07 2.10429e+07 2.10579e+07 2.1446e+07
          2.23155e+07 2.26701e+07 2.30926e+07 2.32136e+07 2.32698e+07 2.34215e+07 2.36248e+07 2.42144e+07 2.46899e+07 2.48667e+07 2.53786e+07 2.60366e+07
          2.11324e+07 2.1157e+07 1.97743e+07 2.24094e+07 2.28376e+07 2.32921e+07 2.3374e+07 2.34174e+07 2.36965e+07 2.41231e+07 2.46708e+07 2.50934e+07
          2.52648e+07 2.57222e+07 2.62989e+07 2.1327e+07 2.137e+07 2.18695e+07 2.28233e+07 2.3094e+07 2.38344e+07 2.39111e+07 2.39735e+07 2.42466e+07
          2.47024e+07 2.51935e+07 2.54495e+07 2.56332e+07 2.60694e+07 2.65925e+07 2.15749e+07 2.16245e+07 2.24805e+07 2.32945e+07 2.39482e+07 2.44754e+07
          2.45555e+07 2.46419e+07 2.48051e+07 2.5269e+07 2.56572e+07 2.57584e+07 2.5934e+07 2.64428e+07 2.70011e+07 2.19288e+07 2.19822e+07 2.30225e+07
          2.38219e+07 2.4581e+07 2.50617e+07 2.51212e+07 2.51815e+07 2.53376e+07 2.57028e+07 2.59564e+07 2.603e+07 2.62673e+07 2.68244e+07 2.75647e+07
          2.24416e+07 2.2504e+07 2.34967e+07 2.43042e+07 2.52478e+07 2.55742e+07 2.56858e+07 2.57984e+07 2.59198e+07 2.61413e+07 2.62619e+07 2.6289e+07
          2.65359e+07 2.7251e+07 2.81254e+07 2.30646e+07 2.31664e+07 2.38037e+07 2.44212e+07 2.5792e+07 2.60174e+07 2.62643e+07 2.64951e+07 2.654e+07
          2.65903e+07 2.66309e+07 2.66574e+07 2.69174e+07 2.76776e+07 2.84576e+07 2.39879e+07 2.41191e+07 2.44069e+07 2.48337e+07 2.61702e+07 2.63375e+07
          2.67273e+07 2.70605e+07 2.70687e+07 2.70266e+07 2.70061e+07 2.70414e+07 2.72604e+07 2.80278e+07 2.87047e+07 2.46635e+07 2.47183e+07 2.49154e+07
          2.52754e+07 2.65408e+07 2.66492e+07 2.71927e+07 2.76271e+07 2.7662e+07 2.74315e+07 2.73968e+07 2.74192e+07 2.76381e+07 2.83867e+07 2.94543e+07
          2.52224e+07 2.53608e+07 2.54593e+07 2.58208e+07 2.70628e+07 2.71804e+07 2.77585e+07 2.82572e+07 2.83477e+07 2.81938e+07 2.79582e+07 2.8351e+07
          2.8957e+07 2.99433e+07 3.01744e+07 2.63022e+07 2.63508e+07 2.62214e+07 2.66028e+07 2.79317e+07 2.80473e+07 2.85231e+07 2.88946e+07 2.8962e+07
          2.90169e+07 2.90303e+07 2.95482e+07 3.02691e+07 3.08344e+07 3.06057e+07 2.71169e+07 2.71167e+07 2.71668e+07 2.82694e+07 2.8797e+07 2.88621e+07
          2.91764e+07 2.94028e+07 2.94541e+07 2.95328e+07 2.96829e+07 3.04773e+07 3.10973e+07 3.12767e+07 3.11212e+07 2.78316e+07 2.7853e+07 2.79625e+07
          2.90524e+07 2.93055e+07 2.93611e+07 2.9584e+07 2.97299e+07 2.97797e+07 2.9855e+07 3.01551e+07 3.09071e+07 3.14665e+07 3.17819e+07 3.16079e+07
          2.85657e+07 2.86154e+07 2.89236e+07 2.95829e+07 2.97164e+07 2.97547e+07 2.98684e+07 2.99687e+07 3.0017e+07 3.00808e+07 3.04826e+07 3.13762e+07
          3.19775e+07 3.22841e+07 3.20537e+07 2.91542e+07 2.92139e+07 2.95848e+07 2.98734e+07 2.99998e+07 3.00439e+07 3.01331e+07 3.02083e+07 3.02587e+07
          3.03168e+07 3.08114e+07 3.17555e+07 3.23694e+07 3.26192e+07 3.24981e+07 2.94704e+07 2.95369e+07 2.97582e+07 3.00808e+07 3.02474e+07 3.0295e+07
          3.03738e+07 3.04406e+07 3.04868e+07 3.05427e+07 3.10866e+07 3.213e+07 3.27585e+07 3.29445e+07 3.31128e+07 2.97229e+07 2.97816e+07 2.99808e+07
          3.03014e+07 3.04652e+07 3.05133e+07 3.05902e+07 3.06538e+07 3.07003e+07 3.07627e+07 3.13016e+07 3.24515e+07 3.3142e+07 3.32875e+07 3.36976e+07
          2.99346e+07 3.00014e+07 3.01597e+07 3.04561e+07 3.06597e+07 3.07129e+07 3.0796e+07 3.08638e+07 3.09266e+07 3.1006e+07 3.17684e+07 3.29984e+07
          3.3498e+07 3.36519e+07 3.41538e+07 3.01373e+07 3.02066e+07 3.03476e+07 3.06373e+07 3.08448e+07 3.09035e+07 3.10004e+07 3.10786e+07 3.11606e+07
          3.12524e+07 3.2282e+07 3.35598e+07 3.3867e+07 3.4055e+07 3.45983e+07 3.03218e+07 3.03851e+07 3.05551e+07 3.08604e+07 3.10299e+07 3.10976e+07
          3.12123e+07 3.13034e+07 3.141e+07 3.1525e+07 3.27176e+07 3.40237e+07 3.42867e+07 3.44976e+07 3.49176e+07 3.04902e+07 3.05504e+07 3.06994e+07
          3.10056e+07 3.1223e+07 3.12926e+07 3.1422e+07 3.15284e+07 3.16591e+07 3.18147e+07 3.31986e+07 3.44272e+07 3.47193e+07 3.491e+07 3.52e+07
        </DataArray>
        <DataArray type="Float32" Name="velocity[0]" NumberOfComponents="1" format="ascii">
          8.20407e-11 2.96374e-08 2.87575e-10 2.46052e-09 -1.47279e-10 -1.27962e-09 -1.67952e-10 1.46578e-09 2.10957e-09 -5.68599e-10 -2.10153e-09 -3.1053e-09
          -2.21988e-09 -6.69293e-10 -2.79909e-09 -1.03938e-09 8.5713e-08 6.10475e-10 5.17043e-10 3.12168e-10 2.10477e-09 8.92513e-09 6.42178e-09 4.61751e-09
          -2.87414e-09 -4.39911e-09 -1.30468e-08 -8.10438e-09 -2.05984e-09 -7.40878e-09 -9.1478e-09 1.299e-07 1.21308e-09 2.77947e-08 8.12443e-10 6.02251e-09
          1.64666e-08 1.30039e-08 2.53127e-09 -7.01092e-09 -5.41869e-09 -3.26209e-08 -1.1305e-08 -4.24454e-09 -1.10398e-08 -2.38227e-08 1.63798e-07 6.28793e-09
          1.08144e-07 -4.79373e-10 -4.08085e-09 2.83756e-09 6.69066e-09 -4.50303e-09 -1.52312e-08 -7.27983e-09 -5.75743e-08 -8.01447e-09 -6.01785e-09 -1.49336e-08
          -9.50298e-08 -2.17092e-08 -1.48874e-10 -5.40964e-08 -5.51805e-09 -3.61156e-08 -4.51104e-08 -4.58654e-08 -1.13993e-08 -1.64541e-08 -1.03192e-08 -9.76879e-08
          -4.07274e-09 -5.46938e-09 -1.82613e-08 -1.66985e-07 -2.02861e-07 -6.75054e-09 -1.91674e-07 -1.56189e-08 -1.1021e-07 -7.52838e-08 -1.12355e-07 -1.2652e-08
          -8.48396e-09 -1.50282e-08 -1.3971e-07 -2.42128e-09 -4.34525e-09 -2.04253e-08 -1.68158e-07 -1.76977e-07 -2.4176e-09 -7.92762e-08 -1.75409e-08 -1.85987e-07
          -6.07139e-08 -1.76821e-07 -1.01054e-08 -3.91852e-09 -1.79493e-08 -1.64264e-07 -2.00905e-09 -4.19716e-09 -2.1881e-08 -1.53111e-07 -1.63593e-07 -2.68287e-09
          -2.61535e-08 -1.22571e-08 -2.20069e-07 -3.55013e-08 -2.53005e-07 -7.49372e-09 -2.74823e-09 -1.94655e-08 -1.76819e-07 -1.61049e-09 -4.21521e-09 -2.35276e-08
          -1.37338e-07 -1.48013e-07 -2.55126e-09 -5.86794e-09 -1.00486e-08 -2.34867e-07 -1.27738e-08 -3.18278e-07 -5.62812e-09 -2.92757e-09 -3.14301e-08 -1.65494e-07
          -1.51572e-09 -3.72838e-09 -2.57277e-08 -1.09835e-07 -1.34788e-07 -8.70329e-09 -1.06331e-09 -7.28655e-09 -2.35407e-07 -4.19258e-09 -3.83963e-07 -5.0446e-09
          -3.44048e-09 -5.2582e-08 -1.35106e-07 -2.30489e-09 -3.0743e-09 -2.7933e-08 -7.91686e-08 -1.22257e-07 -1.87579e-08 -1.98224e-09 -6.23688e-09 -2.30653e-07
          -1.39607e-09 -4.46131e-07 -5.70885e-09 -4.5939e-09 -6.70878e-08 -1.01974e-07 -5.1934e-09 -3.357e-09 -2.99091e-08 -6.55845e-08 -9.11178e-08 -3.05963e-08
          -1.70113e-09 -8.73126e-09 -2.30997e-07 -1.14919e-09 -4.88671e-07 -1.55304e-08 -5.22896e-09 -7.2756e-08 -5.57195e-08 -1.38117e-08 -7.13126e-09 -3.13737e-08
          -5.13652e-08 -7.303e-08 -3.77409e-08 -3.83306e-09 -1.33357e-08 -2.18122e-07 -1.66372e-09 -5.07727e-07 -4.63255e-08 -7.32778e-09 -5.37697e-08 -1.81637e-08
          -2.8487e-08 -1.44547e-08 -3.19895e-08 -3.96422e-08 -8.27626e-08 -2.87923e-08 -5.3199e-09 -1.96556e-08 -2.03323e-07 -1.72706e-09 -4.88923e-07 -8.2583e-08
          -1.44752e-08 -2.45613e-08 -7.28634e-09 -3.42399e-08 -2.62092e-08 -3.06448e-08 -4.65629e-08 -7.75612e-08 -1.66076e-08 -3.89311e-09 -2.63962e-08 -2.02592e-07
          -1.23763e-09 -4.48027e-07 -1.00476e-07 -2.317e-08 -1.4547e-08 -3.78941e-09 -3.13078e-08 -4.08524e-08 -2.73004e-08 -5.71805e-08 -6.09586e-08 -9.0537e-09
          -3.44224e-09 -3.2459e-08 -2.00763e-07 -1.55149e-09 -3.82227e-07 -1.05256e-07 -3.20662e-08 -8.56326e-09 -4.99973e-09 -3.50453e-08 -5.99618e-08 -2.29171e-08
          -6.11787e-08 -4.72017e-08 -4.78421e-09 -4.59776e-09 -4.62865e-08 -1.76339e-07 -2.99408e-09 -3.02533e-07 -1.05993e-07 -4.96724e-08 -3.52983e-09 -4.89232e-09
          -2.85715e-08 -8.88742e-08 -1.8163e-08 -5.99571e-08 -3.71141e-08 -2.0197e-09 -3.21903e-09 -6.89219e-08 -1.27596e-07 -4.58116e-09 -2.30125e-07 -1.13957e-07
          -7.4828e-08 -2.49609e-09 -3.30006e-09 -1.8525e-08 -1.16087e-07 -1.41539e-08 -5.39676e-08 -2.65554e-08 -1.21743e-09 -1.2502e-09 -8.58162e-08 -8.15152e-08
          -4.83259e-09 -1.63594e-07 -1.13508e-07 -1.17064e-07 -1.45211e-09 -2.71669e-09 -2.42081e-08 -1.3265e-07 -1.23809e-08 -4.47394e-08 -1.78948e-08 -1.39096e-09
          -5.89719e-10 -9.19413e-08 -4.66168e-08 -4.04743e-09 -1.19581e-07 -7.32591e-08 -2.0227e-07 -2.52912e-09 -3.86099e-09 -3.5987e-08 -1.40658e-07 -1.33204e-08
          -3.41891e-08 -1.2062e-08 -1.28446e-09 -1.49447e-10 -8.58591e-08 -2.45073e-08 -3.48205e-09 -9.40003e-08 -3.06013e-08 -2.80227e-07 -3.96395e-09 -7.11147e-09
          -4.3778e-08 -1.46986e-07 -1.53034e-08 -2.1505e-08 -6.15313e-09 -2.04435e-09 -7.87296e-10 -6.36508e-08 -1.67319e-08 -3.40635e-09 -8.8537e-08 -1.6581e-08
          -2.96026e-07 -3.61601e-09 -1.36615e-08 -4.79196e-08 -1.53414e-07 -1.899e-08 -1.00387e-08 -2.46035e-09 -9.21997e-10 -5.20861e-10 -3.18422e-08 -1.25128e-08
          -2.79516e-09 -9.32707e-08 -1.33503e-08 -2.54928e-07 -5.01659e-09 -2.35536e-08 -6.28291e-08 -1.59825e-07 -2.47933e-08 -2.65968e-09 -5.54245e-10 2.0406e-10
          7.61747e-11 -7.52537e-09 -4.77911e-09 -1.02308e-09 -4.75039e-08 -6.21599e-09 -1.10191e-07 -3.30942e-09 -1.42887e-08 -3.75132e-08 -8.21384e-08 -1.39207e-08
        </DataArray>
        <DataArray type="Float32" Name="velocity[1]" NumberOfComponents="1" format="ascii">
          -1.27501e-26 4.74781e-24 8.40426e-26 3.82394e-25 2.28889e-26 0 2.61017e-26 -2.16356e-25 4.59873e-27 5.90974e-24 -3.77379e-24 1.29407e-26
          2.43767e-24 -9.57523e-25 4.35102e-25 1.87032e-25 3.97613e-24 7.76165e-26 -6.84434e-25 -1.34572e-25 7.54146e-24 1.42209e-24 4.98193e-25 -7.22613e-24
          -7.26049e-26 0 -1.40455e-26 1.82199e-26 -1.03503e-28 2.81387e-25 1.07311e-24 -6.31388e-24 -1.38516e-24 4.92371e-24 -1.18876e-25 0
          2.57468e-25 -4.99733e-25 -3.86137e-25 0 7.3614e-24 -1.18364e-23 0 1.13144e-24 -2.82808e-25 2.476e-24 1.07457e-23 -1.34107e-24
          -1.03019e-23 2.76494e-25 9.73339e-24 -2.32489e-23 2.65615e-23 -4.21059e-24 1.13191e-24 3.83765e-24 -4.77736e-24 2.98736e-24 -1.28878e-24 9.66652e-25
          -1.26976e-25 -6.26797e-23 5.36402e-24 1.10559e-23 -3.39398e-25 -3.59765e-24 4.33383e-26 -1.15504e-25 -4.38874e-25 -7.15281e-24 4.59997e-24 -8.67531e-24
          1.29661e-28 1.33402e-25 -1.51648e-24 -1.56719e-25 6.37337e-24 -5.20032e-25 3.81352e-24 3.51734e-26 -8.00978e-24 0 -7.00233e-26 1.8295e-25
          5.36655e-25 -4.22446e-25 6.98692e-24 -1.29076e-24 7.65787e-25 1.51642e-24 -9.50837e-25 1.08219e-24 0 6.29701e-24 -6.67277e-25 -1.11591e-23
          3.19456e-26 -2.81224e-26 -2.41794e-24 1.73801e-28 7.63891e-29 -2.00981e-28 1.93537e-26 -1.95647e-29 -1.65785e-24 -2.17526e-25 1.20283e-23 1.14382e-24
          4.25913e-24 4.03452e-26 1.47729e-23 4.00611e-26 5.8823e-26 3.60639e-25 -3.41738e-27 -2.90501e-24 -1.30873e-23 -1.34421e-28 -3.26912e-25 1.91374e-24
          -1.47133e-24 -8.64514e-24 -5.44549e-26 -1.23309e-24 -1.95653e-25 2.68964e-24 0 0 6.89837e-26 5.47802e-29 4.45686e-25 4.18108e-24
          -3.62451e-28 5.99937e-26 -6.991e-29 -1.00447e-23 1.23457e-24 1.30461e-24 -7.15198e-26 -2.00676e-24 2.99839e-24 -5.61942e-24 5.511e-24 2.90556e-26
          -5.54518e-26 7.2913e-27 3.53543e-24 -7.55899e-25 0 -2.08465e-24 4.02115e-24 2.29659e-25 5.46342e-25 -1.92109e-25 1.85848e-24 -1.01281e-27
          -3.62935e-24 8.30405e-24 8.40679e-26 1.24196e-25 -4.06824e-25 7.75578e-24 1.67806e-24 -2.71022e-25 1.35511e-25 -4.91386e-24 7.31336e-24 -1.32474e-24
          -6.5121e-26 -1.3064e-24 -1.79928e-23 2.9235e-26 2.46464e-24 -3.38538e-24 2.45526e-26 1.3656e-24 2.95845e-24 -1.71671e-24 9.89387e-25 -9.23362e-26
          3.06826e-24 5.20251e-24 0 -2.9615e-25 4.00142e-25 2.09136e-24 5.1043e-26 5.03876e-25 -3.34363e-24 9.65669e-28 -2.57554e-24 -8.28926e-25
          1.33378e-24 -8.04688e-25 -5.0801e-29 2.30686e-26 -1.01261e-27 8.72059e-25 1.29229e-25 6.40477e-28 1.48769e-23 -4.03124e-26 -3.42097e-24 5.48314e-24
          -3.17621e-25 2.57451e-24 2.16295e-24 -4.35451e-24 1.41581e-29 -2.27518e-24 -3.09245e-24 -5.34641e-24 6.29725e-28 3.80849e-25 4.65107e-25 4.90437e-28
          -3.51776e-26 -7.24966e-24 1.91888e-24 0 0 3.03458e-25 3.60209e-24 -4.7095e-25 4.24286e-24 0 1.21815e-24 0
          -3.10779e-25 4.77821e-25 2.64918e-28 8.39556e-26 -7.2927e-24 1.20943e-28 5.59065e-29 -2.66955e-29 3.82303e-24 -3.51994e-28 -1.13709e-24 -1.96765e-24
          -5.87053e-29 9.20068e-25 1.31216e-27 -9.37351e-26 1.6721e-24 -9.31129e-24 0 -9.65136e-24 0 1.84257e-28 2.81617e-24 -3.49227e-24
          -1.60289e-24 2.65364e-28 1.2289e-24 0 3.20792e-24 0 4.04036e-25 1.57748e-24 4.46802e-24 1.05881e-25 -6.16023e-24 -5.24102e-24
          -1.96396e-24 1.6777e-25 4.91931e-26 -2.79917e-29 -1.61884e-24 -9.7078e-25 3.83499e-24 -1.95208e-24 2.12233e-24 -1.72977e-24 7.79798e-25 7.83392e-24
          -6.67997e-26 -4.17906e-24 9.54283e-24 5.01833e-24 -3.01732e-24 6.61195e-26 8.41847e-25 -4.16354e-28 9.53359e-25 2.7215e-28 -3.47932e-24 7.54475e-25
          -1.58449e-24 3.44467e-25 -2.42524e-24 -1.09922e-25 -5.32171e-24 -4.81164e-24 8.64396e-24 2.45877e-25 3.23312e-24 9.8858e-25 -3.27305e-25 -7.89934e-25
          -9.22707e-25 5.54504e-25 0 -3.5349e-26 -1.11761e-24 4.00675e-24 -7.04445e-24 7.04559e-24 -5.18385e-24 1.09847e-27 0 0
          2.22298e-25 -6.22281e-28 1.26154e-24 -1.04856e-24 -1.10307e-24 1.01696e-24 -1.70804e-24 -7.91806e-25 -1.20146e-24 2.03339e-26 4.65768e-25 -3.38304e-24
          1.22439e-23 -2.34489e-25 -5.89276e-24 4.21053e-25 8.57266e-25 -1.06087e-28 -7.33069e-25 -3.67387e-28 -4.20934e-28 1.03527e-25 -2.61e-24 4.59621e-25
          -1.16405e-25 9.2405e-24 -3.84425e-24 0 -2.49009e-25 -7.80407e-25 5.996e-24 -6.92614e-25 0 -4.13735e-25 -3.81004e-28 -3.37356e-25
          5.72134e-25 -1.1691e-24 -1.95123e-24 -3.19069e-25 -2.50877e-24 9.66038e-25 -2.67393e-23 0 2.67508e-23 -1.96295e-23 1.6225e-23 4.07551e-25
        </DataArray>
        <DataArray type="Float32" Name="velocity[2]" NumberOfComponents="1" format="ascii">
          2.98103e-11 3.8205e-09 -2.76914e-09 -2.46074e-09 -2.98918e-09 -3.09504e-09 -2.82721e-09 -2.57015e-09 -2.61855e-09 -3.18592e-09 -3.28355e-09 -3.12623e-09
          -2.62074e-09 -2.08649e-09 -1.42641e-09 -8.3187e-11 1.4035e-08 -2.2104e-09 -1.94676e-09 -1.76153e-09 -1.67868e-09 -9.3671e-10 -1.71529e-09 -2.14708e-09
          -3.41175e-09 -3.58001e-09 -4.66747e-09 -3.12824e-09 -1.69016e-09 -1.90984e-09 -1.13023e-09 2.30023e-08 -5.78618e-10 2.53022e-09 -3.75705e-09 -2.76909e-09
          -8.39584e-10 -1.48179e-09 -3.25575e-09 -4.67498e-09 -4.21789e-09 -8.1741e-09 -3.66728e-09 -2.20581e-09 -2.55337e-09 -3.65581e-09 2.9173e-08 2.53983e-10
          1.54491e-08 -6.01127e-09 -6.10805e-09 -4.12574e-09 -2.87101e-09 -4.30962e-09 -5.67007e-09 -3.93984e-09 -1.19947e-08 -2.70993e-09 -2.49474e-09 -3.32384e-09
          -1.24733e-08 1.53571e-09 -8.57253e-10 -1.69183e-08 -1.16455e-08 -1.57079e-08 -1.52562e-08 -1.32503e-08 -5.84719e-09 -6.74668e-09 -5.69994e-09 -1.93023e-08
          -1.19384e-09 -1.65758e-09 -3.63819e-09 -2.881e-08 -3.54693e-08 -2.18992e-09 -3.87241e-08 -1.09272e-08 -2.48592e-08 -1.64566e-08 -2.25173e-08 -4.37013e-09
          -3.84141e-09 -4.96187e-09 -2.5929e-08 -9.09195e-10 -1.32847e-09 -3.90494e-09 -3.00598e-08 -3.22125e-08 -1.57188e-09 -1.6992e-08 -8.25218e-09 -3.70479e-08
          -1.40599e-08 -3.36695e-08 -3.27801e-09 -2.34225e-09 -4.85049e-09 -3.00113e-08 -7.66266e-10 -1.12416e-09 -4.04056e-09 -2.74187e-08 -2.9995e-08 -1.8388e-09
          -6.555e-09 -4.83711e-09 -4.1111e-08 -8.57727e-09 -4.64527e-08 -2.30579e-09 -1.53774e-09 -4.40212e-09 -3.19384e-08 -9.50243e-10 -1.46086e-09 -4.51576e-09
          -2.46577e-08 -2.72694e-08 -1.87854e-09 -2.71107e-09 -3.79344e-09 -4.32561e-08 -4.02842e-09 -5.72474e-08 -1.36116e-09 -9.21455e-10 -5.26476e-09 -2.90316e-08
          -9.00387e-10 -1.32632e-09 -4.90252e-09 -2.05652e-08 -2.63306e-08 -3.62753e-09 -1.52292e-09 -2.58143e-09 -4.30998e-08 -2.60455e-09 -6.86882e-08 -9.19436e-10
          -6.15001e-10 -8.60146e-09 -2.35046e-08 -1.07915e-09 -1.23499e-09 -5.29415e-09 -1.46393e-08 -2.31867e-08 -4.84556e-09 -1.55147e-09 -2.30214e-09 -4.18602e-08
          -1.45664e-09 -7.91774e-08 -7.71476e-10 -5.10446e-10 -1.12436e-08 -1.8112e-08 -1.84919e-09 -1.26499e-09 -5.56462e-09 -1.16854e-08 -1.74848e-08 -7.25926e-09
          -1.42357e-09 -2.5445e-09 -4.16027e-08 -1.04167e-09 -8.65802e-08 -2.17024e-09 1.96506e-10 -1.16121e-08 -1.03062e-08 -4.3134e-09 -2.1913e-09 -5.73027e-09
          -9.84855e-09 -1.41492e-08 -7.72023e-09 -1.75108e-09 -3.19515e-09 -3.97953e-08 -2.24422e-09 -9.1385e-08 -8.64723e-09 -3.89654e-10 -9.79623e-09 -5.27511e-09
          -6.97292e-09 -3.24306e-09 -5.64477e-09 -6.97963e-09 -1.43946e-08 -5.37636e-09 -1.93391e-09 -4.28276e-09 -3.65269e-08 -1.05588e-09 -8.75426e-08 -1.56072e-08
          -2.51989e-09 -4.64577e-09 -2.34619e-09 -7.48978e-09 -4.98673e-09 -4.94825e-09 -7.75932e-09 -1.32124e-08 -3.2856e-09 -1.47722e-09 -5.33643e-09 -3.62165e-08
          -6.87482e-10 -7.99806e-08 -1.90099e-08 -5.03712e-09 -3.45592e-09 -1.65759e-09 -6.52376e-09 -7.04882e-09 -4.15466e-09 -9.8265e-09 -1.06284e-08 -2.14005e-09
          -1.39521e-09 -6.32057e-09 -3.59493e-08 -9.22181e-10 -6.92849e-08 -2.15992e-08 -8.39205e-09 -4.33171e-09 -3.91123e-09 -8.87169e-09 -1.09884e-08 -3.23897e-09
          -1.07777e-08 -8.5989e-09 -1.51397e-09 -1.55009e-09 -8.2979e-09 -3.16819e-08 -2.11631e-09 -5.57849e-08 -2.20559e-08 -1.16814e-08 -3.07849e-09 -3.43589e-09
          -8.38474e-09 -1.69055e-08 -2.41977e-09 -1.06641e-08 -6.93643e-09 -1.09858e-09 -1.55106e-09 -1.25979e-08 -2.35567e-08 -3.10496e-09 -4.38997e-08 -2.39492e-08
          -1.6013e-08 -2.78705e-09 -2.97249e-09 -5.64892e-09 -2.10985e-08 -1.94202e-09 -9.82226e-09 -5.61688e-09 -1.39837e-09 -1.33192e-09 -1.59759e-08 -1.58509e-08
          -3.24161e-09 -3.19654e-08 -2.44087e-08 -2.44097e-08 -2.87116e-09 -3.15144e-09 -6.60533e-09 -2.43408e-08 -2.14569e-09 -8.19522e-09 -3.88355e-09 -1.14408e-09
          -1.09386e-09 -1.71769e-08 -9.85368e-09 -3.08485e-09 -2.39234e-08 -1.8069e-08 -4.04507e-08 -2.90496e-09 -2.94543e-09 -8.09198e-09 -2.58143e-08 -2.6993e-09
          -6.42463e-09 -3.09736e-09 -1.32782e-09 -1.06869e-09 -1.65544e-08 -6.42372e-09 -3.02606e-09 -1.92188e-08 -8.96778e-09 -5.27936e-08 -3.19397e-09 -3.65719e-09
          -9.9264e-09 -2.72849e-08 -3.009e-09 -4.24199e-09 -2.10206e-09 -1.47694e-09 -1.21735e-09 -1.30831e-08 -5.66994e-09 -3.37577e-09 -1.83036e-08 -5.67448e-09
          -5.53506e-08 -4.0632e-09 -5.55494e-09 -1.11227e-08 -2.92164e-08 -4.26705e-09 -2.08493e-09 -1.13111e-09 -1.04307e-09 -1.12169e-09 -7.57421e-09 -5.19949e-09
          -3.64402e-09 -1.95716e-08 -5.48798e-09 -4.95228e-08 -6.73423e-09 -9.59944e-09 -1.54101e-08 -3.09576e-08 -5.38805e-09 -6.46469e-10 -4.80525e-10 -3.5721e-10
          -3.58704e-10 -2.09699e-09 -2.23741e-09 -1.82565e-09 -1.13159e-08 -5.67565e-09 -2.87891e-08 -1.23301e-08 -1.08026e-08 -1.23257e-08 -1.7213e-08 -2.89175e-09
        </DataArray>
        <DataArray type="Float32" Name="z[0]" NumberOfComponents="1" format="ascii">
          0.150578 0.150579 0.15058 0.150582 0.150582 0.150583 0.150584 0.150585 0.150585 0.150586 0.150587 0.150588
          0.150589 0.150591 0.150596 0.150581 0.150582 0.150583 0.150585 0.150586 0.150587 0.150587 0.150588 0.150588
          0.150589 0.15059 0.150591 0.150593 0.150595 0.150599 0.150584 0.150585 0.150587 0.150588 0.150589 0.15059
          0.15059 0.150591 0.150592 0.150593 0.150593 0.150595 0.150596 0.150598 0.150602 0.150588 0.150589 0.15059
          0.150591 0.150592 0.150593 0.150594 0.150594 0.150595 0.150596 0.150597 0.150598 0.150599 0.150601 0.150605
          0.150591 0.150592 0.150593 0.150594 0.150598 0.202492 0.212872 0.324091 0.150598 0.150599 0.1506 0.150601
          0.150602 0.150604 0.150609 0.150594 0.150595 0.150596 0.150625 0.347809 0.41014 0.398074 0.394596 0.150601
          0.150602 0.150603 0.150604 0.150605 0.150607 0.150612 0.150597 0.150598 0.150599 0.210244 0.408346 0.438686