<?xml version="1.0"?>
<VTKFile type="UnstructuredGrid" version="0.1" byte_order="LittleEndian">
  <UnstructuredGrid>
    <Piece NumberOfCells="360" NumberOfPoints="800">
      <CellData Scalars="pressure[0]">
        <DataArray type="Float32" Name="pressure[0]" NumberOfComponents="1" format="ascii">
          2.08024e+07 2.08169e+07 2.12843e+07 2.17926e+07 2.22211e+07 2.27385e+07 2.29041e+07 2.29615e+07 2.30296e+07 2.31019e+07 2.33288e+07 2.3712e+07
          2.39971e+07 2.46745e+07 2.54728e+07 2.0846e+07 2.08605e+07 2.1366e+07 2.18893e+07 2.2373e+07 2.29322e+07 2.30553e+07 2.3099e+07 2.31697e+07
          2.32533e+07 2.35836e+07 2.39748e+07 2.41959e+07 2.48862e+07 2.56415e+07 2.08898e+07 2.09042e+07 2.1426e+07 2.20219e+07 2.24618e+07 2.29987e+07
          2.31523e+07 2.32205e+07 2.3317e+07 2.34386e+07 2.38959e+07 2.43506e+07 2.45443e+07 2.51582e+07 2.58583e+07 2.09339e+07 2.09487e+07 2.13073e+07
          2.21493e+07 2.25818e+07 2.31344e+07 2.32892e+07 2.33564e+07 2.35223e+07 2.37267e+07 2.43267e+07 2.47968e+07 2.49673e+07 2.54727e+07 2.61295e+07
          2.10262e+07 2.10522e+07 1.97615e+07 2.22223e+07 2.25823e+07 2.36685e+07 2.37916e+07 2.38434e+07 2.40197e+07 2.43624e+07 2.48341e+07 2.52202e+07
          2.53796e+07 2.58218e+07 2.6394e+07 2.1218e+07 2.12607e+07 2.13899e+07 2.31402e+07 2.37409e+07 2.4313e+07 2.43791e+07 2.44379e+07 2.46194e+07
          2.49545e+07 2.53573e+07 2.55758e+07 2.57514e+07 2.61732e+07 2.66899e+07 2.14624e+07 2.15112e+07 2.21377e+07 2.40367e+07 2.45232e+07 2.49406e+07
          2.50107e+07 2.50881e+07 2.51909e+07 2.55121e+07 2.57922e+07 2.58778e+07 2.60496e+07 2.6549e+07 2.71017e+07 2.18116e+07 2.18664e+07 2.30931e+07
          2.42864e+07 2.5047e+07 2.54642e+07 2.55191e+07 2.55702e+07 2.56714e+07 2.59056e+07 2.60748e+07 2.61386e+07 2.63754e+07 2.6932e+07 2.76701e+07
          2.23114e+07 2.2375e+07 2.34969e+07 2.45085e+07 2.56177e+07 2.59371e+07 2.60374e+07 2.61336e+07 2.61844e+07 2.62898e+07 2.63584e+07 2.63842e+07
          2.66328e+07 2.73617e+07 2.82349e+07 2.2912e+07 2.30125e+07 2.37081e+07 2.44066e+07 2.61266e+07 2.63544e+07 2.65798e+07 2.67847e+07 2.6705e+07
          2.66855e+07 2.66952e+07 2.67203e+07 2.69891e+07 2.78001e+07 2.85689e+07 2.37941e+07 2.39107e+07 2.43242e+07 2.48023e+07 2.64903e+07 2.66626e+07
          2.70236e+07 2.73316e+07 2.7178e+07 2.70934e+07 2.70432e+07 2.7057e+07 2.72941e+07 2.81891e+07 2.88229e+07 2.45232e+07 2.47169e+07 2.49785e+07
          2.5373e+07 2.68537e+07 2.69646e+07 2.74774e+07 2.78915e+07 2.79349e+07 2.75282e+07 2.74842e+07 2.76423e+07 2.81084e+07 2.86634e+07 2.96e+07
          2.57031e+07 2.57397e+07 2.57507e+07 2.6106e+07 2.73633e+07 2.74752e+07 2.80266e+07 2.85081e+07 2.86065e+07 2.85826e+07 2.85296e+07 2.87645e+07
          2.92886e+07 3.01329e+07 3.02941e+07 2.66663e+07 2.6701e+07 2.65205e+07 2.69276e+07 2.81898e+07 2.83013e+07 2.87603e+07 2.9122e+07 2.91919e+07
          2.92723e+07 2.93399e+07 2.98137e+07 3.04565e+07 3.09589e+07 3.07208e+07 2.74221e+07 2.7423e+07 2.74538e+07 2.85402e+07 2.90173e+07 2.90796e+07
          2.93848e+07 2.96037e+07 2.96548e+07 2.97346e+07 2.98898e+07 3.06353e+07 3.1214e+07 3.13863e+07 3.12277e+07 2.80974e+07 2.81206e+07 2.82154e+07
          2.92709e+07 2.95052e+07 2.95597e+07 2.97752e+07 2.99168e+07 2.99659e+07 3.00393e+07 3.0329e+07 3.10419e+07 3.15722e+07 3.18747e+07 3.1705e+07
          2.87944e+07 2.88449e+07 2.92291e+07 2.9783e+07 2.99023e+07 2.99404e+07 3.00522e+07 3.01506e+07 3.01984e+07 3.02613e+07 3.06446e+07 3.14935e+07
          3.20654e+07 3.23612e+07 3.21413e+07 2.93569e+07 2.94166e+07 2.97826e+07 3.00591e+07 3.01803e+07 3.02245e+07 3.03118e+07 3.03855e+07 3.04353e+07
          3.04928e+07 3.0964e+07 3.18615e+07 3.24461e+07 3.26882e+07 3.25754e+07 2.96673e+07 2.97334e+07 2.99498e+07 3.02622e+07 3.04238e+07 3.04714e+07
          3.05484e+07 3.06137e+07 3.06595e+07 3.07149e+07 3.12331e+07 3.22254e+07 3.28243e+07 3.3006e+07 3.31723e+07 2.99163e+07 2.99748e+07 3.0169e+07
          3.04795e+07 3.06388e+07 3.06869e+07 3.07619e+07 3.0824e+07 3.08701e+07 3.09317e+07 3.14454e+07 3.25393e+07 3.31973e+07 3.33406e+07 3.37399e+07
          3.0126e+07 3.01922e+07 3.03468e+07 3.06341e+07 3.08316e+07 3.08844e+07 3.09654e+07 3.10312e+07 3.10929e+07 3.11706e+07 3.18968e+07 3.30672e+07
          3.35442e+07 3.36956e+07 3.41833e+07 3.03269e+07 3.03956e+07 3.05335e+07 3.08142e+07 3.10153e+07 3.10734e+07 3.11674e+07 3.1243e+07 3.13231e+07
          3.14126e+07 3.23927e+07 3.36092e+07 3.39036e+07 3.40873e+07 3.46153e+07 3.05104e+07 3.05733e+07 3.0739e+07 3.10346e+07 3.11991e+07 3.12658e+07
          3.13766e+07 3.14646e+07 3.15679e+07 3.16795e+07 3.28149e+07 3.40585e+07 3.43111e+07 3.45167e+07 3.49273e+07 3.06785e+07 3.07383e+07 3.08839e+07
          3.11801e+07 3.13906e+07 3.1459e+07 3.15838e+07 3.16863e+07 3.18125e+07 3.19627e+07 3.32801e+07 3.44503e+07 3.47308e+07 3.49172e+07 3.52041e+07
        </DataArray>
        <DataArray type="Float32" Name="pressure[1]" NumberOfComponents="1" format="ascii">
          2.08024e+07 2.08169e+07 2.12843e+07 2.17926e+07 2.22211e+07 2.27385e+07 2.29041e+07 2.29615e+07 2.30296e+07 2.31019e+07 2.33288e+07 2.3712e+07
          2.39971e+07 2.46745e+07 2.54728e+07 2.0846e+07 2.08605e+07 2.1366e+07 2.18893e+07 2.2373e+07 2.29322e+07 2.30553e+07 2.3099e+07 2.31697e+07
          2.32533e+07 2.35836e+07 2.39748e+07 2.41959e+07 2.48862e+07 2.56415e+07 2.08898e+07 2.09042e+07 2.1426e+07 2.20219e+07 2.24618e+07 2.29987e+07
          2.31523e+07 2.32205e+07 2.3317e+07 2.34386e+07 2.38959e+07 2.43506e+07 2.45443e+07 2.51582e+07 2.58583e+07 2.09339e+07 2.09487e+07 2.13073e+07
          2.21493e+07 2.25818e+07 2.31344e+07 2.32892e+07 2.33564e+07 2.35223e+07 2.37267e+07 2.43267e+07 2.47968e+07 2.49673e+07 2.54727e+07 2.61295e+07
          2.10262e+07 2.10522e+07 1.97615e+07 2.22223e+07 2.25823e+07 2.36685e+07 2.37916e+07 2.38434e+07 2.40197e+07 2.43624e+07 2.48341e+07 2.52202e+07
          2.53796e+07 2.58218e+07 2.6394e+07 2.1218e+07 2.12607e+07 2.13899e+07 2.31402e+07 2.37409e+07 2.4313e+07 2.43791e+07 2.44379e+07 2.46194e+07
          2.49545e+07 2.53573e+07 2.55758e+07 2.57514e+07 2.61732e+07 2.66899e+07 2.14624e+07 2.15112e+07 2.21377e+07 2.40367e+07 2.45232e+07 2.49406e+07
          2.50107e+07 2.50881e+07 2.51909e+07 2.55121e+07 2.57922e+07 2.58778e+07 2.60496e+07 2.6549e+07 2.71017e+07 2.18116e+07 2.18664e+07 2.30931e+07
          2.42864e+07 2.5047e+07 2.54642e+07 2.55191e+07 2.55702e+07 2.56714e+07 2.59056e+07 2.60748e+07 2.61386e+07 2.63754e+07 2.6932e+07 2.76701e+07
          2.23114e+07 2.2375e+07 2.34969e+07 2.45085e+07 2.56177e+07 2.59371e+07 2.60374e+07 2.61336e+07 2.61844e+07 2.62898e+07 2.63584e+07 2.63842e+07
          2.66328e+07 2.73617e+07 2.82349e+07 2.2912e+07 2.30125e+07 2.37081e+07 2.44066e+07 2.61266e+07 2.63544e+07 2.65798e+07 2.67847e+07 2.6705e+07
          2.66855e+07 2.66952e+07 2.67203e+07 2.69891e+07 2.78001e+07 2.85689e+07 2.37941e+07 2.39107e+07 2.43242e+07 2.48023e+07 2.64903e+07 2.66626e+07
          2.70236e+07 2.73316e+07 2.7178e+07 2.70934e+07 2.70432e+07 2.7057e+07 2.72941e+07 2.81891e+07 2.88229e+07 2.45232e+07 2.47169e+07 2.49785e+07
          2.5373e+07 2.68537e+07 2.69646e+07 2.74774e+07 2.78915e+07 2.79349e+07 2.75282e+07 2.74842e+07 2.76423e+07 2.81084e+07 2.86634e+07 2.96e+07
          2.57031e+07 2.57397e+07 2.57507e+07 2.6106e+07 2.73633e+07 2.74752e+07 2.80266e+07 2.85081e+07 2.86065e+07 2.85826e+07 2.85296e+07 2.87645e+07
          2.92886e+07 3.01329e+07 3.02941e+07 2.66663e+07 2.6701e+07 2.65205e+07 2.69276e+07 2.81898e+07 2.83013e+07 2.87603e+07 2.9122e+07 2.91919e+07
          2.92723e+07 2.93399e+07 2.98137e+07 3.04565e+07 3.09589e+07 3.07208e+07 2.74221e+07 2.7423e+07 2.74538e+07 2.85402e+07 2.90173e+07 2.90796e+07
          2.93848e+07 2.96037e+07 2.96548e+07 2.97346e+07 2.98898e+07 3.06353e+07 3.1214e+07 3.13863e+07 3.12277e+07 2.80974e+07 2.81206e+07 2.82154e+07
          2.92709e+07 2.95052e+07 2.95597e+07 2.97752e+07 2.99168e+07 2.99659e+07 3.00393e+07 3.0329e+07 3.10419e+07 3.15722e+07 3.18747e+07 3.1705e+07
          2.87944e+07 2.88449e+07 2.92291e+07 2.9783e+07 2.99023e+07 2.99404e+07 3.00522e+07 3.01506e+07 3.01984e+07 3.02613e+07 3.06446e+07 3.14935e+07
          3.20654e+07 3.23612e+07 3.21413e+07 2.93569e+07 2.94166e+07 2.97826e+07 3.00591e+07 3.01803e+07 3.02245e+07 3.03118e+07 3.03855e+07 3.04353e+07
          3.04928e+07 3.0964e+07 3.18615e+07 3.24461e+07 3.26882e+07 3.25754e+07 2.96673e+07 2.97334e+07 2.99498e+07 3.02622e+07 3.04238e+07 3.04714e+07
          3.05484e+07 3.06137e+07 3.06595e+07 3.07149e+07 3.12331e+07 3.22254e+07 3.28243e+07 3.3006e+07 3.31723e+07 2.99163e+07 2.99748e+07 3.0169e+07
          3.04795e+07 3.06388e+07 3.06869e+07 3.07619e+07 3.0824e+07 3.08701e+07 3.09317e+07 3.14454e+07 3.25393e+07 3.31973e+07 3.33406e+07 3.37399e+07
          3.0126e+07 3.01922e+07 3.03468e+07 3.06341e+07 3.08316e+07 3.08844e+07 3.09654e+07 3.10312e+07 3.10929e+07 3.11706e+07 3.18968e+07 3.30672e+07
          3.35442e+07 3.36956e+07 3.41833e+07 3.03269e+07 3.03956e+07 3.05335e+07 3.08142e+07 3.10153e+07 3.10734e+07 3.11674e+07 3.1243e+07 3.13231e+07
          3.14126e+07 3.23927e+07 3.36092e+07 3.39036e+07 3.40873e+07 3.46153e+07 3.05104e+07 3.05733e+07 3.0739e+07 3.10346e+07 3.11991e+07 3.12658e+07
          3.13766e+07 3.14646e+07 3.15679e+07 3.16795e+07 3.28149e+07 3.40585e+07 3.43111e+07 3.45167e+07 3.49273e+07 3.06785e+07 3.07383e+07 3.08839e+07
          3.11801e+07 3.13906e+07 3.1459e+07 3.15838e+07 3.16863e+07 3.18125e+07 3.19627e+07 3.32801e+07 3.44503e+07 3.47308e+07 3.49172e+07 3.52041e+07
        </DataArray>
        <DataArray type="Float32" Name="pressure[2]" NumberOfComponents="1" format="ascii">
          2.08024e+07 2.08169e+07 2.12843e+07 2.17926e+07 2.22211e+07 2.27385e+07 2.29041e+07 2.29615e+07 2.30296e+07 2.31019e+07 2.33288e+07 2.3712e+07
          2.39971e+07 2.46745e+07 2.54728e+07 2.0846e+07 2.08605e+07 2.1366e+07 2.18893e+07 2.2373e+07 2.29322e+07 2.30553e+07 2.3099e+07 2.31697e+07
          2.32533e+07 2.35836e+07 2.39748e+07 2.41959e+07 2.48862e+07 2.56415e+07 2.08898e+07 2.09042e+07 2.1426e+07 2.20219e+07 2.24618e+07 2.29987e+07
          2.31523e+07 2.32205e+07 2.3317e+07 2.34386e+07 2.38959e+07 2.43506e+07 2.45443e+07 2.51582e+07 2.58583e+07 2.09339e+07 2.09487e+07 2.13073e+07
          2.21493e+07 2.25818e+07 2.31344e+07 2.32892e+07 2.33564e+07 2.35223e+07 2.37267e+07 2.43267e+07 2.47968e+07 2.49673e+07 2.54727e+07 2.61295e+07
          2.10262e+07 2.10522e+07 1.97615e+07 2.22223e+07 2.25823e+07 2.36685e+07 2.37916e+07 2.38434e+07 2.40197e+07 2.43624e+07 2.48341e+07 2.52202e+07
          2.53796e+07 2.58218e+07 2.6394e+07 2.1218e+07 2.12607e+07 2.13899e+07 2.31402e+07 2.37409e+07 2.4313e+07 2.43791e+07 2.44379e+07 2.46194e+07
          2.49545e+07 2.53573e+07 2.55758e+07 2.57514e+07 2.61732e+07 2.66899e+07 2.14624e+07 2.15112e+07 2.21377e+07 2.40367e+07 2.45232e+07 2.49406e+07
          2.50107e+07 2.50881e+07 2.51909e+07 2.55121e+07 2.57922e+07 2.58778e+07 2.60496e+07 2.6549e+07 2.71017e+07 2.18116e+07 2.18664e+07 2.30931e+07
          2.42864e+07 2.5047e+07 2.54642e+07 2.55191e+07 2.55702e+07 2.56714e+07 2.59056e+07 2.60748e+07 2.61386e+07 2.63754e+07 2.6932e+07 2.76701e+07
          2.23114e+07 2.2375e+07 2.34969e+07 2.45085e+07 2.56177e+07 2.59371e+07 2.60374e+07 2.61336e+07 2.61844e+07 2.62898e+07 2.63584e+07 2.63842e+07
          2.66328e+07 2.73617e+07 2.82349e+07 2.2912e+07 2.30125e+07 2.37081e+07 2.44066e+07 2.61266e+07 2.63544e+07 2.65798e+07 2.67847e+07 2.6705e+07
          2.66855e+07 2.66952e+07 2.67203e+07 2.69891e+07 2.78001e+07 2.85689e+07 2.37941e+07 2.39107e+07 2.43242e+07 2.48023e+07 2.64903e+07 2.66626e+07
          2.70236e+07 2.73316e+07 2.7178e+07 2.70934e+07 2.70432e+07 2.7057e+07 2.72941e+07 2.81891e+07 2.88229e+07 2.45232e+07 2.47169e+07 2.49785e+07
          2.5373e+07 2.68537e+07 2.69646e+07 2.74774e+07 2.78915e+07 2.79349e+07 2.75282e+07 2.74842e+07 2.76423e+07 2.81084e+07 2.86634e+07 2.96e+07
          2.57031e+07 2.57397e+07 2.57507e+07 2.6106e+07 2.73633e+07 2.74752e+07 2.80266e+07 2.85081e+07 2.86065e+07 2.85826e+07 2.85296e+07 2.87645e+07
          2.92886e+07 3.01329e+07 3.02941e+07 2.66663e+07 2.6701e+07 2.65205e+07 2.69276e+07 2.81898e+07 2.83013e+07 2.87603e+07 2.9122e+07 2.91919e+07
          2.92723e+07 2.93399e+07 2.98137e+07 3.04565e+07 3.09589e+07 3.07208e+07 2.74221e+07 2.7423e+07 2.74538e+07 2.85402e+07 2.90173e+07 2.90796e+07
          2.93848e+07 2.96037e+07 2.96548e+07 2.97346e+07 2.98898e+07 3.06353e+07 3.1214e+07 3.13863e+07 3.12277e+07 2.80974e+07 2.81206e+07 2.82154e+07
          2.92709e+07 2.95052e+07 2.95597e+07 2.97752e+07 2.99168e+07 2.99659e+07 3.00393e+07 3.0329e+07 3.10419e+07 3.15722e+07 3.18747e+07 3.1705e+07
          2.87944e+07 2.88449e+07 2.92291e+07 2.9783e+07 2.99023e+07 2.99404e+07 3.00522e+07 3.01506e+07 3.01984e+07 3.02613e+07 3.06446e+07 3.14935e+07
          3.20654e+07 3.23612e+07 3.21413e+07 2.93569e+07 2.94166e+07 2.97826e+07 3.00591e+07 3.01803e+07 3.02245e+07 3.03118e+07 3.03855e+07 3.04353e+07
          3.04928e+07 3.0964e+07 3.18615e+07 3.24461e+07 3.26882e+07 3.25754e+07 2.96673e+07 2.97334e+07 2.99498e+07 3.02622e+07 3.04238e+07 3.04714e+07
          3.05484e+07 3.06137e+07 3.06595e+07 3.07149e+07 3.12331e+07 3.22254e+07 3.28243e+07 3.3006e+07 3.31723e+07 2.99163e+07 2.99748e+07 3.0169e+07
          3.04795e+07 3.06388e+07 3.06869e+07 3.07619e+07 3.0824e+07 3.08701e+07 3.09317e+07 3.14454e+07 3.25393e+07 3.31973e+07 3.33406e+07 3.37399e+07
          3.0126e+07 3.01922e+07 3.03468e+07 3.06341e+07 3.08316e+07 3.08844e+07 3.09654e+07 3.10312e+07 3.10929e+07 3.11706e+07 3.18968e+07 3.30672e+07
          3.35442e+07 3.36956e+07 3.41833e+07 3.03269e+07 3.03956e+07 3.05335e+07 3.08142e+07 3.10153e+07 3.10734e+07 3.11674e+07 3.1243e+07 3.13231e+07
          3.14126e+07 3.23927e+07 3.36092e+07 3.39036e+07 3.40873e+07 3.46153e+07 3.05104e+07 3.05733e+07 3.0739e+07 3.10346e+07 3.11991e+07 3.12658e+07
          3.13766e+07 3.14646e+07 3.15679e+07 3.16795e+07 3.28149e+07 3.40585e+07 3.43111e+07 3.45167e+07 3.49273e+07 3.06785e+07 3.07383e+07 3.08839e+07
          3.11801e+07 3.13906e+07 3.1459e+07 3.15838e+07 3.16863e+07 3.18125e+07 3.19627e+07 3.32801e+07 3.44503e+07 3.47308e+07 3.49172e+07 3.52041e+07
        </DataArray>
        <DataArray type="Float32" Name="velocity[0]" NumberOfComponents="1" format="ascii">
          -1.46627e-11 2.74609e-08 4.07175e-10 7.15783e-09 -1.23428e-10 -1.76364e-09 -1.60515e-09 4.33393e-10 1.81365e-10 -1.73549e-09 -2.37368e-09 -3.49498e-09
          -2.53706e-09 -7.78409e-10 -2.90374e-09 -1.14793e-09 7.92938e-08 7.77737e-10 1.30018e-08 3.27706e-10 1.29083e-09 5.13104e-09 2.90941e-09 -9.77373e-10
          -6.13202e-09 -5.00636e-09 -1.44745e-08 -9.02245e-09 -2.29899e-09 -7.66161e-09 -8.58149e-09 1.19143e-07 1.2106e-09 5.14457e-08 7.90644e-10 3.35231e-09
          7.25994e-09 3.12748e-09 -6.17494e-09 -1.2534e-08 -6.33273e-09 -3.56409e-08 -1.22901e-08 -4.51795e-09 -1.13515e-08 -2.10843e-08 1.47374e-07 5.85618e-09
          1.54852e-07 4.03282e-09 -1.06556e-08 -2.29963e-08 -2.49457e-08 -1.73365e-08 -2.26473e-08 -8.66896e-09 -6.22228e-08 -8.54277e-09 -6.24697e-09 -1.52568e-08
          -8.67453e-08 -2.43095e-08 5.52423e-10 2.35894e-08 -7.56066e-09 -4.76679e-08 -6.54722e-08 -6.70198e-08 -2.06002e-08 -2.09419e-08 -1.11373e-08 -1.00186e-07
          -4.23877e-09 -5.60299e-09 -1.85677e-08 -1.56474e-07 -1.92235e-07 -6.01558e-09 -1.19789e-07 -2.09896e-08 -1.14308e-07 -7.54906e-08 -1.05237e-07 -1.4502e-08
          -8.93305e-09 -1.42419e-08 -1.36369e-07 -2.42762e-09 -4.41414e-09 -2.07026e-08 -1.60977e-07 -1.72583e-07 -4.02044e-09 -3.97653e-08 -1.44091e-08 -1.73478e-07
          -5.68337e-08 -1.69622e-07 -9.97071e-09 -3.67543e-09 -1.61929e-08 -1.53802e-07 -1.95165e-09 -4.2309e-09 -2.21358e-08 -1.47082e-07 -1.59849e-07 -3.59849e-09
          -7.01959e-09 -8.72506e-09 -2.02135e-07 -3.21164e-08 -2.46537e-07 -6.41809e-09 -2.30536e-09 -1.71146e-08 -1.59229e-07 -1.52059e-09 -4.25011e-09 -2.37736e-08
          -1.30869e-07 -1.41994e-07 -1.56098e-09 2.38749e-10 -7.48199e-09 -2.19543e-07 -1.19657e-08 -3.13095e-07 -4.61498e-09 -2.40544e-09 -2.70463e-08 -1.4436e-07
          -1.36512e-09 -3.81933e-09 -2.59721e-08 -1.04244e-07 -1.26998e-07 -7.77148e-09 4.87725e-10 -5.70882e-09 -2.23915e-07 -4.03598e-09 -3.80959e-07 -4.1269e-09
          -2.9895e-09 -4.58982e-08 -1.12568e-07 -1.94989e-09 -3.40557e-09 -2.81591e-08 -7.65617e-08 -1.02687e-07 -2.29054e-08 -2.15633e-09 -5.1836e-09 -2.22578e-07
          -1.36733e-09 -4.45741e-07 -4.75246e-09 -4.56007e-09 -6.8252e-08 -6.72461e-08 -4.49245e-09 -4.56706e-09 -2.99954e-08 -5.02933e-08 -7.14394e-08 -4.58484e-08
          -2.37582e-09 -7.91345e-09 -2.2551e-07 -1.1417e-09 -4.88321e-07 -1.50819e-08 -6.31635e-09 -6.13365e-08 -3.58242e-08 -1.24533e-08 -7.85625e-09 -3.12259e-08
          -3.40485e-08 -6.62808e-08 -4.8614e-08 -4.07946e-09 -1.27054e-08 -2.13612e-07 -1.63694e-09 -4.98793e-07 -4.50098e-08 -7.32898e-09 -3.24924e-08 -2.06634e-08
          -2.58518e-08 -1.37053e-08 -3.15861e-08 -3.6384e-08 -7.75621e-08 -2.85388e-08 -4.93558e-09 -1.90624e-08 -1.98673e-07 -1.67521e-09 -4.69021e-07 -7.84791e-08
          -1.23486e-08 -1.80843e-08 -6.43763e-09 -3.12883e-08 -2.47905e-08 -3.00207e-08 -4.47728e-08 -7.23096e-08 -1.57809e-08 -3.51005e-09 -2.56292e-08 -1.97296e-07
          -1.18751e-09 -4.23353e-07 -9.47337e-08 -2.08932e-08 -1.23832e-08 -3.41067e-09 -2.92588e-08 -3.88042e-08 -2.65838e-08 -5.54054e-08 -5.74594e-08 -7.77155e-09
          -3.24073e-09 -3.15167e-08 -1.94569e-07 -1.46785e-09 -3.59157e-07 -9.89727e-08 -2.99161e-08 -7.73047e-09 -4.66299e-09 -3.32374e-08 -5.715e-08 -2.22121e-08
          -5.91824e-08 -4.53055e-08 -3.66288e-09 -4.25391e-09 -4.45426e-08 -1.69997e-07 -2.84019e-09 -2.84101e-07 -9.96838e-08 -4.67895e-08 -3.3042e-09 -4.6241e-09
          -2.71476e-08 -8.48056e-08 -1.7539e-08 -5.78644e-08 -3.58432e-08 -1.57345e-09 -2.87899e-09 -6.58032e-08 -1.22219e-07 -4.35642e-09 -2.16818e-07 -1.07434e-07
          -7.05583e-08 -2.3604e-09 -3.13422e-09 -1.76425e-08 -1.10804e-07 -1.36247e-08 -5.19611e-08 -2.55368e-08 -1.07834e-09 -1.1617e-09 -8.17407e-08 -7.77179e-08
          -4.58786e-09 -1.54569e-07 -1.07258e-07 -1.10699e-07 -1.37777e-09 -2.58551e-09 -2.30684e-08 -1.26601e-07 -1.18883e-08 -4.30164e-08 -1.71885e-08 -1.31489e-09
          -5.54825e-10 -8.74399e-08 -4.43452e-08 -3.83875e-09 -1.13102e-07 -6.93355e-08 -1.91702e-07 -2.40266e-09 -3.67384e-09 -3.43099e-08 -1.34203e-07 -1.27628e-08
          -3.28506e-08 -1.15869e-08 -1.22523e-09 -1.38058e-10 -8.15653e-08 -2.32819e-08 -3.30098e-09 -8.89734e-08 -2.90019e-08 -2.65887e-07 -3.76604e-09 -6.76572e-09
          -4.17593e-08 -1.40201e-07 -1.46368e-08 -2.06559e-08 -5.90818e-09 -1.9592e-09 -7.52365e-10 -6.04392e-08 -1.58898e-08 -3.23201e-09 -8.39542e-08 -1.57328e-08
          -2.81054e-07 -3.4377e-09 -1.30075e-08 -4.57062e-08 -1.4628e-07 -1.81423e-08 -9.63993e-09 -2.36138e-09 -8.83561e-10 -4.97441e-10 -3.02379e-08 -1.18885e-08
          -2.65471e-09 -8.85815e-08 -1.26789e-08 -2.42137e-07 -4.77063e-09 -2.24311e-08 -5.9871e-08 -1.52341e-07 -2.36646e-08 -2.55371e-09 -5.31835e-10 1.96402e-10
          7.40755e-11 -7.15132e-09 -4.54212e-09 -9.72233e-10 -4.51446e-08 -5.90555e-09 -1.04684e-07 -3.14707e-09 -1.36076e-08 -3.57313e-08 -7.82778e-08 -1.32826e-08
        </DataArray>
        <DataArray type="Float32" Name="velocity[1]" NumberOfComponents="1" format="ascii">
          2.27876e-27 4.38577e-24 2.19476e-26 1.11241e-24 1.91821e-26 0 2.4946e-25 -8.26738e-26 -4.65642e-26 6.1784e-24 -3.88218e-24 -1.19275e-26
          2.48568e-24 -9.66458e-25 4.51496e-25 1.73844e-25 3.68529e-24 1.63721e-26 -2.04185e-25 -7.20134e-26 8.9024e-24 1.46661e-24 3.76367e-25 -8.55584e-24
          5.59363e-27 0 8.09836e-27 -6.78229e-27 -2.26488e-27 2.88153e-25 9.81419e-25 -5.85287e-24 -1.27071e-24 6.17882e-24 -2.12291e-26 0
          1.01938e-24 2.90293e-25 -5.99496e-25 0 7.41594e-24 -1.22777e-23 0 1.1401e-24 -2.84743e-25 1.92425e-24 9.75043e-24 -1.29323e-24
          -1.51575e-23 -1.10926e-24 1.30325e-23 -2.8561e-23 3.63771e-23 -3.42768e-24 1.12816e-24 3.92734e-24 -4.6972e-24 2.88121e-24 -1.28522e-24 9.64556e-25
          -7.85265e-26 -5.73277e-23 4.75414e-24 7.605e-24 -8.80331e-26 -3.92652e-24 -3.19767e-26 -3.49485e-26 6.81989e-25 -5.57231e-24 4.19625e-24 -7.81217e-24
          1.09888e-27 1.39506e-25 -1.53929e-24 -1.09013e-25 5.13244e-24 -6.88963e-26 3.5859e-24 -1.81761e-26 -6.29414e-24 0 -1.61958e-26 4.09997e-25
          6.68339e-25 -3.1122e-25 7.46496e-24 -1.24679e-24 7.39902e-25 1.53987e-24 -7.61227e-25 6.63006e-25 0 4.33935e-24 -8.22172e-25 -1.08784e-23
          4.64465e-26 3.54318e-26 -1.57816e-24 1.37966e-27 1.35524e-27 1.20534e-27 1.47001e-26 2.63118e-28 -1.67814e-24 -1.5607e-25 1.16873e-23 1.75423e-24
          1.37334e-24 3.49365e-26 1.31899e-23 -9.27354e-27 -1.30092e-26 3.34956e-25 7.72551e-27 -2.17389e-24 -1.14887e-23 3.72183e-28 -3.26317e-25 1.93269e-24
          -1.40563e-24 -7.87841e-24 9.9401e-26 -2.4707e-24 -9.59182e-26 2.4417e-24 0 0 3.3616e-25 -5.61138e-28 1.58973e-25 4.34561e-24
          5.96333e-28 5.34367e-26 3.34918e-28 -9.54229e-24 1.33507e-24 1.42589e-24 -4.49763e-25 -2.11544e-24 2.83262e-24 -5.31686e-24 5.63126e-24 -1.76396e-25
          -6.80897e-26 2.09682e-25 3.70793e-24 -8.13489e-25 0 -2.10368e-24 4.15185e-24 2.17686e-25 1.27819e-24 -2.15348e-25 2.0433e-24 -2.04796e-27
          -3.47664e-24 8.88126e-24 5.9714e-26 1.75287e-25 -6.01299e-25 5.78258e-24 1.78492e-24 -2.32699e-25 1.1635e-25 -2.57603e-24 4.52333e-24 -2.273e-24
          -1.0184e-25 -1.41023e-24 -1.76477e-23 2.94906e-26 2.18251e-24 -3.41144e-24 -9.71559e-26 1.45104e-24 2.27041e-24 -1.16734e-24 9.19242e-25 -7.45578e-26
          2.7149e-24 4.49377e-24 0 -2.13342e-25 4.18607e-25 2.10009e-24 4.81987e-26 -5.48522e-25 -3.10638e-24 4.41773e-28 -1.79702e-24 -7.31453e-25
          1.20721e-24 -7.6988e-25 -2.28196e-28 2.23478e-25 7.70064e-28 8.42184e-25 1.59e-25 8.33216e-28 1.45467e-23 -4.1015e-26 -4.07391e-24 5.73945e-24
          -1.03317e-24 1.79668e-24 1.96016e-24 -3.96069e-24 1.00126e-28 -2.2205e-24 -2.947e-24 -4.98564e-24 1.77638e-27 3.43378e-25 4.50479e-25 3.75715e-28
          -3.42664e-26 -7.41255e-24 1.95145e-24 0 0 2.69031e-25 3.35949e-24 -4.25029e-25 4.13163e-24 0 1.06104e-24 0
          -3.01523e-25 4.65033e-25 2.83794e-28 7.78347e-26 -6.95388e-24 1.06695e-28 -1.22936e-28 -1.24782e-28 3.6012e-24 -3.88501e-28 -1.06736e-24 -1.91074e-24
          2.1207e-28 8.27642e-25 4.1141e-28 -5.85457e-26 1.56007e-24 -8.89816e-24 0 -9.15925e-24 0 3.45892e-28 2.66631e-24 -3.30639e-24
          -1.51776e-24 2.4554e-28 1.18466e-24 0 3.10659e-24 0 3.59825e-25 1.47531e-24 4.34687e-24 9.97361e-26 -5.74572e-24 -4.92786e-24
          -1.86607e-24 1.57318e-25 4.56903e-26 4.57946e-30 -1.54799e-24 -9.32781e-25 3.68878e-24 -1.89174e-24 2.04848e-24 -1.66171e-24 7.32764e-25 7.47703e-24
          -6.37394e-26 -3.92834e-24 9.0085e-24 4.75915e-24 -2.86155e-24 6.24512e-26 8.02763e-25 -3.92971e-28 9.14803e-25 1.80836e-28 -3.35128e-24 7.27021e-25
          -1.52189e-24 3.06079e-25 -2.31165e-24 -1.04895e-25 -5.03211e-24 -4.54713e-24 8.21894e-24 2.33494e-25 3.0682e-24 9.44164e-25 -3.08162e-25 -7.60923e-25
          -8.8758e-25 5.33007e-25 0 -3.42849e-26 -1.06611e-24 3.83152e-24 -6.73603e-24 6.73709e-24 -4.935e-24 1.35651e-27 0 0
          2.13657e-25 -6.12166e-28 1.20604e-24 -1.00761e-24 -1.06004e-24 9.77106e-25 -1.64062e-24 -7.35969e-25 -1.14134e-24 1.95803e-26 4.53809e-25 -3.22258e-24
          1.16404e-23 -2.23034e-25 -5.60024e-24 3.99436e-25 8.15753e-25 -7.33164e-29 -7.041e-25 -2.67091e-28 -3.42092e-28 9.94044e-26 -2.47687e-24 4.36171e-25
          -1.10381e-25 8.80291e-24 -3.65965e-24 0 -2.36773e-25 -7.43133e-25 5.69501e-24 -6.55711e-25 0 -3.97165e-25 -3.44946e-28 -3.23606e-25
          5.48768e-25 -1.11102e-24 -1.85952e-24 -3.03343e-25 -2.37492e-24 9.17792e-25 -2.54091e-23 0 2.54346e-23 -1.86797e-23 1.54527e-23 3.87604e-25
        </DataArray>
        <DataArray type="Float32" Name="velocity[2]" NumberOfComponents="1" format="ascii">
          -6.16821e-12 3.50003e-09 -2.62857e-09 -1.82289e-09 -3.45799e-09 -3.66704e-09 -3.5353e-09 -3.15592e-09 -3.2434e-09 -3.5446e-09 -3.44552e-09 -3.2922e-09
          -2.74959e-09 -2.17151e-09 -1.47947e-09 -1.33175e-10 1.2935e-08 -2.08337e-09 1.29669e-10 -2.09655e-09 -2.20443e-09 -2.00059e-09 -2.68151e-09 -3.36137e-09
          -4.10207e-09 -3.78528e-09 -4.99631e-09 -3.32867e-09 -1.76152e-09 -1.96843e-09 -1.09476e-09 2.10729e-08 -5.40146e-10 6.27263e-09 -4.64733e-09 -4.06862e-09
          -3.10873e-09 -3.6335e-09 -5.01031e-09 -5.75946e-09 -4.4415e-09 -8.71634e-09 -3.82769e-09 -2.26511e-09 -2.61299e-09 -3.30424e-09 2.61683e-08 2.19868e-10
          2.29478e-08 -6.97812e-09 -9.20774e-09 -1.02318e-08 -9.23142e-09 -6.75183e-09 -6.9917e-09 -4.18133e-09 -1.27833e-08 -2.76394e-09 -2.52175e-09 -3.37893e-09
          -1.12975e-08 7.11599e-10 -5.54552e-10 -1.59028e-09 -8.7175e-09 -1.37868e-08 -1.52497e-08 -1.46085e-08 -6.24805e-09 -6.87848e-09 -5.4082e-09 -1.95395e-08
          -1.19152e-09 -1.66465e-09 -3.68724e-09 -2.68611e-08 -3.32308e-08 -1.41532e-09 -2.42773e-08 -9.51586e-09 -2.41594e-08 -1.56483e-08 -2.05263e-08 -4.06765e-09
          -3.39855e-09 -4.3845e-09 -2.51314e-08 -8.85806e-10 -1.3237e-09 -3.94776e-09 -2.87122e-08 -3.11859e-08 -1.47683e-09 -9.1321e-09 -6.38195e-09 -3.3868e-08
          -1.27356e-08 -3.17913e-08 -2.67366e-09 -1.76417e-09 -4.02178e-09 -2.79061e-08 -7.45085e-10 -1.12273e-09 -4.08264e-09 -2.64115e-08 -2.95362e-08 -2.48633e-09
          -3.42346e-09 -3.99849e-09 -3.76947e-08 -7.64554e-09 -4.49059e-08 -1.69612e-09 -1.03756e-09 -3.59575e-09 -2.86536e-08 -9.33122e-10 -1.46513e-09 -4.55757e-09
          -2.35452e-08 -2.6315e-08 -1.94783e-09 -1.85082e-09 -3.40975e-09 -4.04899e-08 -3.70715e-09 -5.61037e-08 -9.1743e-10 -5.66134e-10 -4.33138e-09 -2.52794e-08
          -8.83456e-10 -1.3484e-09 -4.94493e-09 -1.95495e-08 -2.49735e-08 -3.57716e-09 -1.37347e-09 -2.39693e-09 -4.10614e-08 -2.47579e-09 -6.80342e-08 -6.05837e-10
          -3.73774e-10 -7.30214e-09 -1.95067e-08 -1.05576e-09 -1.31096e-09 -5.32688e-09 -1.40616e-08 -2.00385e-08 -6.05949e-09 -1.69922e-09 -2.21816e-09 -4.04574e-08
          -1.4003e-09 -7.90074e-08 -4.61383e-10 -3.59125e-10 -1.07497e-08 -1.14276e-08 -1.85731e-09 -1.50974e-09 -5.53874e-09 -1.00245e-08 -1.5637e-08 -1.05805e-08
          -1.62684e-09 -2.47512e-09 -4.06582e-08 -1.01517e-09 -8.65417e-08 -2.12319e-09 4.36934e-11 -1.08664e-08 -7.83551e-09 -3.57417e-09 -2.04694e-09 -5.66608e-09
          -5.94379e-09 -1.11403e-08 -8.63455e-09 -1.75009e-09 -3.05986e-09 -3.89727e-08 -2.21574e-09 -8.9967e-08 -8.84479e-09 -9.85818e-10 -6.00125e-09 -5.18412e-09
          -6.25613e-09 -2.96413e-09 -5.52573e-09 -6.31898e-09 -1.33444e-08 -5.2676e-09 -1.83748e-09 -4.15888e-09 -3.5696e-08 -1.03963e-09 -8.4139e-08 -1.51765e-08
          -2.52349e-09 -3.66856e-09 -2.11296e-09 -6.82824e-09 -4.62319e-09 -4.81197e-09 -7.43498e-09 -1.22287e-08 -3.06151e-09 -1.3463e-09 -5.13796e-09 -3.52508e-08
          -6.73227e-10 -7.56395e-08 -1.80451e-08 -4.70184e-09 -3.08695e-09 -1.55003e-09 -6.09091e-09 -6.63331e-09 -4.02313e-09 -9.52436e-09 -9.98211e-09 -1.85439e-09
          -1.31656e-09 -6.11146e-09 -3.48339e-08 -9.00661e-10 -6.51531e-08 -2.03792e-08 -7.90979e-09 -4.04579e-09 -3.67924e-09 -8.39261e-09 -1.04264e-08 -3.1232e-09
          -1.04294e-08 -8.24227e-09 -1.22948e-09 -1.37909e-09 -7.92956e-09 -3.05325e-08 -2.05057e-09 -5.24314e-08 -2.07661e-08 -1.10174e-08 -2.90947e-09 -3.25034e-09
          -7.95354e-09 -1.60979e-08 -2.32782e-09 -1.02977e-08 -6.71561e-09 -9.97099e-10 -1.43247e-09 -1.20129e-08 -2.25719e-08 -2.99282e-09 -4.14116e-08 -2.26069e-08
          -1.51143e-08 -2.64038e-09 -2.81769e-09 -5.36747e-09 -2.01176e-08 -1.86197e-09 -9.46015e-09 -5.40954e-09 -1.3326e-09 -1.27146e-09 -1.52273e-08 -1.51303e-08
          -3.10977e-09 -3.02417e-08 -2.30937e-08 -2.30952e-08 -2.72287e-09 -2.99e-09 -6.28149e-09 -2.32199e-08 -2.05753e-09 -7.88084e-09 -3.73311e-09 -1.09689e-09
          -1.04921e-09 -1.63496e-08 -9.3921e-09 -2.9525e-09 -2.266e-08 -1.71295e-08 -3.83468e-08 -2.75684e-09 -2.79643e-09 -7.7041e-09 -2.4619e-08 -2.58046e-09
          -6.1735e-09 -2.97641e-09 -1.27483e-09 -1.02607e-09 -1.57393e-08 -6.11719e-09 -2.88859e-09 -1.82127e-08 -8.51456e-09 -5.00975e-08 -3.03254e-09 -3.47397e-09
          -9.45671e-09 -2.60174e-08 -2.87555e-09 -4.07468e-09 -2.01905e-09 -1.41804e-09 -1.16864e-09 -1.2435e-08 -5.39641e-09 -3.21694e-09 -1.73696e-08 -5.39344e-09
          -5.25551e-08 -3.85949e-09 -5.28046e-09 -1.05962e-08 -2.78505e-08 -4.07305e-09 -2.00214e-09 -1.08596e-09 -1.00115e-09 -1.0763e-09 -7.20295e-09 -4.94832e-09
          -3.47011e-09 -1.85953e-08 -5.21794e-09 -4.70411e-08 -6.39868e-09 -9.12893e-09 -1.46707e-08 -2.95e-08 -5.13987e-09 -6.20675e-10 -4.61225e-10 -3.42698e-10
          -3.43901e-10 -1.99596e-09 -2.12951e-09 -1.73814e-09 -1.07571e-08 -5.3965e-09 -2.7354e-08 -1.17174e-08 -1.02709e-08 -1.17278e-08 -1.63971e-08 -2.75784e-09
        </DataArray>
        <DataArray type="Float32" Name="z[0]" NumberOfComponents="1" format="ascii">
          0.150578 0.150579 0.15058 0.150582 0.150582 0.150583 0.150584 0.150585 0.150585 0.150586 0.150587 0.150588
          0.150589 0.150591 0.150596 0.150581 0.150582 0.150583 0.150585 0.150586 0.150587 0.150587 0.150588 0.150588
          0.150589 0.15059 0.150591 0.150593 0.150595 0.150599 0.150584 0.150585 0.150587 0.150588 0.150589 0.15059
          0.15059 0.150591 0.150592 0.150593 0.150593 0.150595 0.150596 0.150598 0.150602 0.150588 0.150589 0.15059
          0.150591 0.150592 0.164765 0.178054 0.198357 0.150595 0.150596 0.150597 0.150598 0.150599 0.150601 0.150605
          0.150591 0.150592 0.150596 0.302703 0.315915 0.403023 0.395221 0.38922 0.150598 0.150599 0.1506 0.150601
          0.150602 0.150604 0.150609 0.150594 0.150595 0.159141 0.412986 0.439318 0.446807 0.417875 0.406548 0.150601
          0.150602 0.150603 0.150604 0.150605 0.150607 0.150612 0.150597 0.150598 0.163212 0.415092 0.452799 0.461039