<?xml version="1.0"?>
<VTKFile type="UnstructuredGrid" version="0.1" byte_order="LittleEndian">
  <UnstructuredGrid>
    <Piece NumberOfCells="360" NumberOfPoints="800">
      <CellData Scalars="pressure[0]">
        <DataArray type="Float32" Name="pressure[0]" NumberOfComponents="1" format="ascii">
          2.12241e+07 2.12375e+07 2.20157e+07 2.27872e+07 2.31637e+07 2.35489e+07 2.36697e+07 2.37148e+07 2.37709e+07 2.38315e+07 2.3986e+07 2.42411e+07
          2.44318e+07 2.49889e+07 2.56787e+07 2.12861e+07 2.13212e+07 2.2162e+07 2.29565e+07 2.33447e+07 2.37289e+07 2.38171e+07 2.38525e+07 2.39095e+07
          2.3976e+07 2.41858e+07 2.44424e+07 2.46012e+07 2.51786e+07 2.58426e+07 2.14048e+07 2.14513e+07 2.22871e+07 2.31122e+07 2.346e+07 2.38225e+07
          2.39278e+07 2.39772e+07 2.40479e+07 2.41339e+07 2.44109e+07 2.46991e+07 2.48637e+07 2.54086e+07 2.60461e+07 2.15322e+07 2.15788e+07 2.21112e+07
          2.32499e+07 2.36071e+07 2.39671e+07 2.40636e+07 2.41077e+07 2.42055e+07 2.43273e+07 2.46891e+07 2.50362e+07 2.52069e+07 2.56818e+07 2.62963e+07
          2.16628e+07 2.16832e+07 1.98233e+07 2.33523e+07 2.38309e+07 2.42068e+07 2.42691e+07 2.43021e+07 2.4442e+07 2.46505e+07 2.50356e+07 2.53572e+07
          2.55371e+07 2.59886e+07 2.65427e+07 2.18731e+07 2.19159e+07 2.26967e+07 2.39296e+07 2.42361e+07 2.44772e+07 2.45189e+07 2.45523e+07 2.4729e+07
          2.50622e+07 2.54403e+07 2.56462e+07 2.58418e+07 2.62951e+07 2.68178e+07 2.21476e+07 2.21997e+07 2.34315e+07 2.43859e+07 2.45921e+07 2.47565e+07
          2.47979e+07 2.48319e+07 2.50013e+07 2.54429e+07 2.58049e+07 2.59023e+07 2.60899e+07 2.66255e+07 2.71964e+07 2.2545e+07 2.26021e+07 2.37994e+07
          2.47148e+07 2.49148e+07 2.5042e+07 2.50784e+07 2.51092e+07 2.53124e+07 2.57545e+07 2.6056e+07 2.61358e+07 2.63864e+07 2.69691e+07 2.77156e+07
          2.31195e+07 2.31828e+07 2.41151e+07 2.49804e+07 2.52305e+07 2.5333e+07 2.53797e+07 2.54245e+07 2.56759e+07 2.61029e+07 2.63181e+07 2.63632e+07
          2.66172e+07 2.73609e+07 2.82364e+07 2.3769e+07 2.38791e+07 2.43736e+07 2.50545e+07 2.55063e+07 2.5595e+07 2.5682e+07 2.57665e+07 2.60291e+07
          2.64368e+07 2.66337e+07 2.66779e+07 2.69516e+07 2.77581e+07 2.8552e+07 2.44963e+07 2.46115e+07 2.48981e+07 2.53723e+07 2.57414e+07 2.58081e+07
          2.59371e+07 2.60735e+07 2.63654e+07 2.67392e+07 2.6962e+07 2.7021e+07 2.72665e+07 2.80945e+07 2.87885e+07 2.5237e+07 2.53102e+07 2.54372e+07
          2.57271e+07 2.59736e+07 2.60177e+07 2.61865e+07 2.67355e+07 2.69051e+07 2.71244e+07 2.73037e+07 2.73883e+07 2.76626e+07 2.84445e+07 2.9042e+07
          2.57909e+07 2.58402e+07 2.58799e+07 2.61047e+07 2.62813e+07 2.632e+07 2.65277e+07 2.73491e+07 2.74291e+07 2.75664e+07 2.77102e+07 2.78884e+07
          2.81861e+07 2.87981e+07 2.93072e+07 2.62289e+07 2.62776e+07 2.63193e+07 2.65734e+07 2.67365e+07 2.67663e+07 2.69716e+07 2.78141e+07 2.78462e+07
          2.79486e+07 2.80557e+07 2.83499e+07 2.87503e+07 2.99431e+07 2.97789e+07 2.65848e+07 2.66207e+07 2.67935e+07 2.70938e+07 2.72108e+07 2.72157e+07
          2.74422e+07 2.83078e+07 2.83466e+07 2.83829e+07 2.84532e+07 2.88562e+07 3.02516e+07 3.04971e+07 3.03607e+07 2.69048e+07 2.69517e+07 2.72646e+07
          2.76313e+07 2.77342e+07 2.79233e+07 2.8159e+07 2.86768e+07 2.87309e+07 2.88153e+07 2.91288e+07 3.00078e+07 3.07317e+07 3.1135e+07 3.09204e+07
          2.72308e+07 2.72917e+07 2.76959e+07 2.80971e+07 2.84932e+07 2.8548e+07 2.87388e+07 2.89186e+07 2.89704e+07 2.9039e+07 2.95254e+07 3.06311e+07
          3.13844e+07 3.17584e+07 3.14381e+07 2.79913e+07 2.80405e+07 2.82002e+07 2.86561e+07 2.88603e+07 2.89079e+07 2.90456e+07 2.91656e+07 2.92203e+07
          2.92824e+07 2.99004e+07 3.10897e+07 3.18596e+07 3.21523e+07 3.19587e+07 2.83203e+07 2.83835e+07 2.85862e+07 2.89599e+07 2.9159e+07 2.92083e+07
          2.93169e+07 2.94116e+07 2.94607e+07 2.952e+07 3.02062e+07 3.15311e+07 3.23228e+07 3.25315e+07 3.2702e+07 2.85862e+07 2.8645e+07 2.8856e+07
          2.92198e+07 2.94054e+07 2.9455e+07 2.95538e+07 2.96373e+07 2.96869e+07 2.97546e+07 3.04364e+07 3.19031e+07 3.27767e+07 3.29331e+07 3.34093e+07
          2.88068e+07 2.88756e+07 2.90486e+07 2.93846e+07 2.96154e+07 2.96715e+07 2.97745e+07 2.98597e+07 2.99307e+07 3.00209e+07 3.0993e+07 3.25662e+07
          3.31944e+07 3.33623e+07 3.39542e+07 2.90172e+07 2.90894e+07 2.92442e+07 2.95744e+07 2.98107e+07 2.98739e+07 2.99928e+07 3.00895e+07 3.01856e+07
          3.02922e+07 3.16116e+07 3.32495e+07 3.36295e+07 3.38417e+07 3.44846e+07 2.92065e+07 2.92717e+07 2.94618e+07 2.98128e+07 3.00055e+07 3.00803e+07
          3.0221e+07 3.03335e+07 3.04612e+07 3.05978e+07 3.21302e+07 3.38066e+07 3.41304e+07 3.43723e+07 3.48526e+07 2.93766e+07 2.94382e+07 2.96042e+07
          2.99585e+07 3.02103e+07 3.02872e+07 3.04464e+07 3.05783e+07 3.07369e+07 3.09259e+07 3.27077e+07 3.42849e+07 3.46468e+07 3.48629e+07 3.51726e+07
        </DataArray>
        <DataArray type="Float32" Name="pressure[1]" NumberOfComponents="1" format="ascii">
          2.12241e+07 2.12375e+07 2.20157e+07 2.27872e+07 2.31637e+07 2.35489e+07 2.36697e+07 2.37148e+07 2.37709e+07 2.38315e+07 2.3986e+07 2.42411e+07
          2.44318e+07 2.49889e+07 2.56787e+07 2.12861e+07 2.13212e+07 2.2162e+07 2.29565e+07 2.33447e+07 2.37289e+07 2.38171e+07 2.38525e+07 2.39095e+07
          2.3976e+07 2.41858e+07 2.44424e+07 2.46012e+07 2.51786e+07 2.58426e+07 2.14048e+07 2.14513e+07 2.22871e+07 2.31122e+07 2.346e+07 2.38225e+07
          2.39278e+07 2.39772e+07 2.40479e+07 2.41339e+07 2.44109e+07 2.46991e+07 2.48637e+07 2.54086e+07 2.60461e+07 2.15322e+07 2.15788e+07 2.21112e+07
          2.32499e+07 2.36071e+07 2.39671e+07 2.40636e+07 2.41077e+07 2.42055e+07 2.43273e+07 2.46891e+07 2.50362e+07 2.52069e+07 2.56818e+07 2.62963e+07
          2.16628e+07 2.16832e+07 1.98233e+07 2.33523e+07 2.38309e+07 2.42068e+07 2.42691e+07 2.43021e+07 2.4442e+07 2.46505e+07 2.50356e+07 2.53572e+07
          2.55371e+07 2.59886e+07 2.65427e+07 2.18731e+07 2.19159e+07 2.26967e+07 2.39296e+07 2.42361e+07 2.44772e+07 2.45189e+07 2.45523e+07 2.4729e+07
          2.50622e+07 2.54403e+07 2.56462e+07 2.58418e+07 2.62951e+07 2.68178e+07 2.21476e+07 2.21997e+07 2.34315e+07 2.43859e+07 2.45921e+07 2.47565e+07
          2.47979e+07 2.48319e+07 2.50013e+07 2.54429e+07 2.58049e+07 2.59023e+07 2.60899e+07 2.66255e+07 2.71964e+07 2.2545e+07 2.26021e+07 2.37994e+07
          2.47148e+07 2.49148e+07 2.5042e+07 2.50784e+07 2.51092e+07 2.53124e+07 2.57545e+07 2.6056e+07 2.61358e+07 2.63864e+07 2.69691e+07 2.77156e+07
          2.31195e+07 2.31828e+07 2.41151e+07 2.49804e+07 2.52305e+07 2.5333e+07 2.53797e+07 2.54245e+07 2.56759e+07 2.61029e+07 2.63181e+07 2.63632e+07
          2.66172e+07 2.73609e+07 2.82364e+07 2.3769e+07 2.38791e+07 2.43736e+07 2.50545e+07 2.55063e+07 2.5595e+07 2.5682e+07 2.57665e+07 2.60291e+07
          2.64368e+07 2.66337e+07 2.66779e+07 2.69516e+07 2.77581e+07 2.8552e+07 2.44963e+07 2.46115e+07 2.48981e+07 2.53723e+07 2.57414e+07 2.58081e+07
          2.59371e+07 2.60735e+07 2.63654e+07 2.67392e+07 2.6962e+07 2.7021e+07 2.72665e+07 2.80945e+07 2.87885e+07 2.5237e+07 2.53102e+07 2.54372e+07
          2.57271e+07 2.59736e+07 2.60177e+07 2.61865e+07 2.67355e+07 2.69051e+07 2.71244e+07 2.73037e+07 2.73883e+07 2.76626e+07 2.84445e+07 2.9042e+07
          2.57909e+07 2.58402e+07 2.58799e+07 2.61047e+07 2.62813e+07 2.632e+07 2.65277e+07 2.73491e+07 2.74291e+07 2.75664e+07 2.77102e+07 2.78884e+07
          2.81861e+07 2.87981e+07 2.93072e+07 2.62289e+07 2.62776e+07 2.63193e+07 2.65734e+07 2.67365e+07 2.67663e+07 2.69716e+07 2.78141e+07 2.78462e+07
          2.79486e+07 2.80557e+07 2.83499e+07 2.87503e+07 2.99431e+07 2.97789e+07 2.65848e+07 2.66207e+07 2.67935e+07 2.70938e+07 2.72108e+07 2.72157e+07
          2.74422e+07 2.83078e+07 2.83466e+07 2.83829e+07 2.84532e+07 2.88562e+07 3.02516e+07 3.04971e+07 3.03607e+07 2.69048e+07 2.69517e+07 2.72646e+07
          2.76313e+07 2.77342e+07 2.79233e+07 2.8159e+07 2.86768e+07 2.87309e+07 2.88153e+07 2.91288e+07 3.00078e+07 3.07317e+07 3.1135e+07 3.09204e+07
          2.72308e+07 2.72917e+07 2.76959e+07 2.80971e+07 2.84932e+07 2.8548e+07 2.87388e+07 2.89186e+07 2.89704e+07 2.9039e+07 2.95254e+07 3.06311e+07
          3.13844e+07 3.17584e+07 3.14381e+07 2.79913e+07 2.80405e+07 2.82002e+07 2.86561e+07 2.88603e+07 2.89079e+07 2.90456e+07 2.91656e+07 2.92203e+07
          2.92824e+07 2.99004e+07 3.10897e+07 3.18596e+07 3.21523e+07 3.19587e+07 2.83203e+07 2.83835e+07 2.85862e+07 2.89599e+07 2.9159e+07 2.92083e+07
          2.93169e+07 2.94116e+07 2.94607e+07 2.952e+07 3.02062e+07 3.15311e+07 3.23228e+07 3.25315e+07 3.2702e+07 2.85862e+07 2.8645e+07 2.8856e+07
          2.92198e+07 2.94054e+07 2.9455e+07 2.95538e+07 2.96373e+07 2.96869e+07 2.97546e+07 3.04364e+07 3.19031e+07 3.27767e+07 3.29331e+07 3.34093e+07
          2.88068e+07 2.88756e+07 2.90486e+07 2.93846e+07 2.96154e+07 2.96715e+07 2.97745e+07 2.98597e+07 2.99307e+07 3.00209e+07 3.0993e+07 3.25662e+07
          3.31944e+07 3.33623e+07 3.39542e+07 2.90172e+07 2.90894e+07 2.92442e+07 2.95744e+07 2.98107e+07 2.98739e+07 2.99928e+07 3.00895e+07 3.01856e+07
          3.02922e+07 3.16116e+07 3.32495e+07 3.36295e+07 3.38417e+07 3.44846e+07 2.92065e+07 2.92717e+07 2.94618e+07 2.98128e+07 3.00055e+07 3.00803e+07
          3.0221e+07 3.03335e+07 3.04612e+07 3.05978e+07 3.21302e+07 3.38066e+07 3.41304e+07 3.43723e+07 3.48526e+07 2.93766e+07 2.94382e+07 2.96042e+07
          2.99585e+07 3.02103e+07 3.02872e+07 3.04464e+07 3.05783e+07 3.07369e+07 3.09259e+07 3.27077e+07 3.42849e+07 3.46468e+07 3.48629e+07 3.51726e+07
        </DataArray>
        <DataArray type="Float32" Name="pressure[2]" NumberOfComponents="1" format="ascii">
          2.12241e+07 2.12375e+07 2.20157e+07 2.27872e+07 2.31637e+07 2.35489e+07 2.36697e+07 2.37148e+07 2.37709e+07 2.38315e+07 2.3986e+07 2.42411e+07
          2.44318e+07 2.49889e+07 2.56787e+07 2.12861e+07 2.13212e+07 2.2162e+07 2.29565e+07 2.33447e+07 2.37289e+07 2.38171e+07 2.38525e+07 2.39095e+07
          2.3976e+07 2.41858e+07 2.44424e+07 2.46012e+07 2.51786e+07 2.58426e+07 2.14048e+07 2.14513e+07 2.22871e+07 2.31122e+07 2.346e+07 2.38225e+07
          2.39278e+07 2.39772e+07 2.40479e+07 2.41339e+07 2.44109e+07 2.46991e+07 2.48637e+07 2.54086e+07 2.60461e+07 2.15322e+07 2.15788e+07 2.21112e+07
          2.32499e+07 2.36071e+07 2.39671e+07 2.40636e+07 2.41077e+07 2.42055e+07 2.43273e+07 2.46891e+07 2.50362e+07 2.52069e+07 2.56818e+07 2.62963e+07
          2.16628e+07 2.16832e+07 1.98233e+07 2.33523e+07 2.38309e+07 2.42068e+07 2.42691e+07 2.43021e+07 2.4442e+07 2.46505e+07 2.50356e+07 2.53572e+07
          2.55371e+07 2.59886e+07 2.65427e+07 2.18731e+07 2.19159e+07 2.26967e+07 2.39296e+07 2.42361e+07 2.44772e+07 2.45189e+07 2.45523e+07 2.4729e+07
          2.50622e+07 2.54403e+07 2.56462e+07 2.58418e+07 2.62951e+07 2.68178e+07 2.21476e+07 2.21997e+07 2.34315e+07 2.43859e+07 2.45921e+07 2.47565e+07
          2.47979e+07 2.48319e+07 2.50013e+07 2.54429e+07 2.58049e+07 2.59023e+07 2.60899e+07 2.66255e+07 2.71964e+07 2.2545e+07 2.26021e+07 2.37994e+07
          2.47148e+07 2.49148e+07 2.5042e+07 2.50784e+07 2.51092e+07 2.53124e+07 2.57545e+07 2.6056e+07 2.61358e+07 2.63864e+07 2.69691e+07 2.77156e+07
          2.31195e+07 2.31828e+07 2.41151e+07 2.49804e+07 2.52305e+07 2.5333e+07 2.53797e+07 2.54245e+07 2.56759e+07 2.61029e+07 2.63181e+07 2.63632e+07
          2.66172e+07 2.73609e+07 2.82364e+07 2.3769e+07 2.38791e+07 2.43736e+07 2.50545e+07 2.55063e+07 2.5595e+07 2.5682e+07 2.57665e+07 2.60291e+07
          2.64368e+07 2.66337e+07 2.66779e+07 2.69516e+07 2.77581e+07 2.8552e+07 2.44963e+07 2.46115e+07 2.48981e+07 2.53723e+07 2.57414e+07 2.58081e+07
          2.59371e+07 2.60735e+07 2.63654e+07 2.67392e+07 2.6962e+07 2.7021e+07 2.72665e+07 2.80945e+07 2.87885e+07 2.5237e+07 2.53102e+07 2.54372e+07
          2.57271e+07 2.59736e+07 2.60177e+07 2.61865e+07 2.67355e+07 2.69051e+07 2.71244e+07 2.73037e+07 2.73883e+07 2.76626e+07 2.84445e+07 2.9042e+07
          2.57909e+07 2.58402e+07 2.58799e+07 2.61047e+07 2.62813e+07 2.632e+07 2.65277e+07 2.73491e+07 2.74291e+07 2.75664e+07 2.77102e+07 2.78884e+07
          2.81861e+07 2.87981e+07 2.93072e+07 2.62289e+07 2.62776e+07 2.63193e+07 2.65734e+07 2.67365e+07 2.67663e+07 2.69716e+07 2.78141e+07 2.78462e+07
          2.79486e+07 2.80557e+07 2.83499e+07 2.87503e+07 2.99431e+07 2.97789e+07 2.65848e+07 2.66207e+07 2.67935e+07 2.70938e+07 2.72108e+07 2.72157e+07
          2.74422e+07 2.83078e+07 2.83466e+07 2.83829e+07 2.84532e+07 2.88562e+07 3.02516e+07 3.04971e+07 3.03607e+07 2.69048e+07 2.69517e+07 2.72646e+07
          2.76313e+07 2.77342e+07 2.79233e+07 2.8159e+07 2.86768e+07 2.87309e+07 2.88153e+07 2.91288e+07 3.00078e+07 3.07317e+07 3.1135e+07 3.09204e+07
          2.72308e+07 2.72917e+07 2.76959e+07 2.80971e+07 2.84932e+07 2.8548e+07 2.87388e+07 2.89186e+07 2.89704e+07 2.9039e+07 2.95254e+07 3.06311e+07
          3.13844e+07 3.17584e+07 3.14381e+07 2.79913e+07 2.80405e+07 2.82002e+07 2.86561e+07 2.88603e+07 2.89079e+07 2.90456e+07 2.91656e+07 2.92203e+07
          2.92824e+07 2.99004e+07 3.10897e+07 3.18596e+07 3.21523e+07 3.19587e+07 2.83203e+07 2.83835e+07 2.85862e+07 2.89599e+07 2.9159e+07 2.92083e+07
          2.93169e+07 2.94116e+07 2.94607e+07 2.952e+07 3.02062e+07 3.15311e+07 3.23228e+07 3.25315e+07 3.2702e+07 2.85862e+07 2.8645e+07 2.8856e+07
          2.92198e+07 2.94054e+07 2.9455e+07 2.95538e+07 2.96373e+07 2.96869e+07 2.97546e+07 3.04364e+07 3.19031e+07 3.27767e+07 3.29331e+07 3.34093e+07
          2.88068e+07 2.88756e+07 2.90486e+07 2.93846e+07 2.96154e+07 2.96715e+07 2.97745e+07 2.98597e+07 2.99307e+07 3.00209e+07 3.0993e+07 3.25662e+07
          3.31944e+07 3.33623e+07 3.39542e+07 2.90172e+07 2.90894e+07 2.92442e+07 2.95744e+07 2.98107e+07 2.98739e+07 2.99928e+07 3.00895e+07 3.01856e+07
          3.02922e+07 3.16116e+07 3.32495e+07 3.36295e+07 3.38417e+07 3.44846e+07 2.92065e+07 2.92717e+07 2.94618e+07 2.98128e+07 3.00055e+07 3.00803e+07
          3.0221e+07 3.03335e+07 3.04612e+07 3.05978e+07 3.21302e+07 3.38066e+07 3.41304e+07 3.43723e+07 3.48526e+07 2.93766e+07 2.94382e+07 2.96042e+07
          2.99585e+07 3.02103e+07 3.02872e+07 3.04464e+07 3.05783e+07 3.07369e+07 3.09259e+07 3.27077e+07 3.42849e+07 3.46468e+07 3.48629e+07 3.51726e+07
        </DataArray>
        <DataArray type="Float32" Name="velocity[0]" NumberOfComponents="1" format="ascii">
          -2.59724e-08 7.9762e-08 -1.2712e-10 -7.40972e-09 -4.09877e-10 -1.65683e-09 -1.19328e-09 6.64298e-10 1.02476e-09 -6.26946e-10 -1.70787e-09 -2.24708e-09
          -1.56429e-09 -5.31519e-10 -2.37083e-09 -3.3513e-08 1.71983e-07 -1.00147e-10 -2.80328e-08 -1.37619e-10 9.81647e-10 5.32661e-09 3.67666e-09 1.8575e-09
          -2.91632e-09 -3.54965e-09 -9.61406e-09 -5.89286e-09 -1.55976e-09 -6.28475e-09 -1.37302e-08 1.95706e-07 1.06904e-09 -9.17369e-09 1.52413e-10 2.39146e-09
          7.63824e-09 5.07016e-09 -9.5804e-10 -6.59978e-09 -4.12412e-09 -2.40284e-08 -8.48097e-09 -3.30548e-09 -9.42804e-09 -1.01724e-08 2.12328e-07 8.44414e-09
          7.90572e-08 -2.8511e-09 -1.65825e-08 -2.0884e-08 -1.412e-08 -6.40197e-09 -1.29013e-08 -5.17147e-09 -4.05346e-08 -6.0571e-09 -4.86243e-09 -1.29001e-08
          -9.92623e-08 -3.1724e-08 -2.97474e-10 -1.61882e-07 -1.98282e-08 -8.07639e-08 -9.20717e-08 -8.16629e-08 -7.7176e-09 -1.24965e-08 -7.13825e-09 -6.69611e-08
          -2.96717e-09 -4.43332e-09 -1.59476e-08 -2.00188e-07 -2.54181e-07 -9.42789e-09 -3.17294e-07 -4.04644e-08 -2.34574e-07 -1.29966e-07 -2.03564e-07 -4.98859e-09
          -5.3413e-09 -1.03823e-08 -9.56216e-08 -1.69193e-09 -3.50827e-09 -1.80286e-08 -1.99321e-07 -2.17138e-07 -2.61926e-09 -1.01413e-07 -3.66116e-08 -3.99942e-07
          -1.05691e-07 -3.49242e-07 -3.75446e-09 -2.22759e-09 -1.24293e-08 -1.14136e-07 -1.49003e-09 -3.47538e-09 -1.94965e-08 -1.78626e-07 -1.94098e-07 -1.95104e-09
          -1.62005e-08 -2.19926e-08 -4.71923e-07 -6.45817e-08 -4.71089e-07 -3.46535e-09 -1.75583e-09 -1.39243e-08 -1.26903e-07 -1.2422e-09 -3.62094e-09 -2.11698e-08
          -1.60059e-07 -1.69314e-07 -2.15136e-09 -2.04116e-09 -1.53224e-08 -4.90221e-07 -2.49644e-08 -5.5027e-07 -2.67872e-09 -1.92767e-09 -2.37207e-08 -1.23261e-07
          -1.16189e-09 -3.30286e-09 -2.33799e-08 -1.29078e-07 -1.54875e-07 -8.33037e-09 -2.57298e-10 -1.16515e-08 -4.90023e-07 -7.8778e-09 -6.13991e-07 -2.38376e-09
          -1.99695e-09 -4.12672e-08 -1.07049e-07 -1.92694e-09 -2.8079e-09 -2.56099e-08 -9.27063e-08 -1.47787e-07 -1.9297e-08 -1.3339e-09 -1.14189e-08 -4.78844e-07
          -2.55384e-09 -6.43327e-07 -9.76931e-09 -3.52947e-09 -5.372e-08 -9.20166e-08 -5.61099e-09 -3.2689e-09 -2.76642e-08 -7.27236e-08 -1.38485e-07 -2.66138e-08
          -1.09546e-09 -1.84868e-08 -4.63867e-07 -2.3436e-09 -5.38629e-07 -5.23829e-08 -8.25034e-09 -5.89626e-08 -7.34158e-08 -2.12496e-08 -6.00681e-09 -2.9964e-08
          -6.57642e-08 -1.3807e-07 -2.33376e-08 -2.12309e-09 -3.02035e-08 -4.21717e-07 -3.88523e-09 -3.50868e-07 -1.3428e-07 -1.47168e-08 -4.90858e-08 -3.89335e-08
          -4.58263e-08 -1.52432e-08 -3.4049e-08 -6.4286e-08 -1.44814e-07 -1.31405e-08 -4.41896e-09 -4.46237e-08 -3.69788e-07 -4.7466e-09 -3.06473e-07 -1.34688e-07
          -4.59177e-08 -3.81646e-08 -1.26403e-08 -5.34607e-08 -3.48043e-08 -3.57447e-08 -7.07194e-08 -1.31523e-07 -7.50807e-09 -7.51225e-09 -9.09429e-08 -2.96747e-07
          -5.45873e-09 -3.74335e-07 -9.53065e-08 -5.3299e-08 -3.03041e-08 -1.09293e-08 -4.82622e-08 -5.67104e-08 -3.28493e-08 -7.8029e-08 -1.02491e-07 -6.60807e-09
          -1.28958e-08 -9.6453e-08 -2.69431e-07 -6.61944e-09 -3.73699e-07 -1.06024e-07 -3.43405e-08 -1.36468e-08 -1.1474e-08 -5.11136e-08 -8.18704e-08 -2.83162e-08
          -7.07971e-08 -7.27444e-08 -9.76117e-09 -1.61556e-08 -7.98162e-08 -2.66821e-07 -6.23856e-09 -3.21267e-07 -1.12804e-07 -5.21031e-08 -4.77088e-09 -7.0884e-09
          -3.96695e-08 -1.19303e-07 -2.28519e-08 -6.34139e-08 -4.66822e-08 -9.36e-09 -9.77017e-09 -1.1146e-07 -1.96606e-07 -6.34823e-09 -2.60408e-07 -1.3019e-07
          -8.5531e-08 -3.16777e-09 -4.41266e-09 -2.48265e-08 -1.54296e-07 -1.803e-08 -5.98953e-08 -3.05476e-08 -4.84529e-09 -2.89453e-09 -1.31399e-07 -1.23489e-07
          -6.60983e-09 -1.97314e-07 -1.36609e-07 -1.42366e-07 -1.83908e-09 -3.56195e-09 -3.18888e-08 -1.75318e-07 -1.59117e-08 -5.16704e-08 -2.1275e-08 -2.40932e-09
          -1.08651e-09 -1.34445e-07 -6.80353e-08 -5.42519e-09 -1.47953e-07 -9.08896e-08 -2.55271e-07 -3.2588e-09 -5.03108e-09 -4.72821e-08 -1.85307e-07 -1.72309e-08
          -4.01408e-08 -1.42567e-08 -1.78198e-09 -3.17803e-10 -1.2178e-07 -3.44399e-08 -4.57477e-09 -1.18085e-07 -3.87749e-08 -3.58823e-07 -5.13028e-09 -9.25787e-09
          -5.75449e-08 -1.93169e-07 -1.98933e-08 -2.5428e-08 -7.32762e-09 -2.52414e-09 -1.00586e-09 -8.84473e-08 -2.28504e-08 -4.46042e-09 -1.13552e-07 -2.12904e-08
          -3.8138e-07 -4.69429e-09 -1.78319e-08 -6.29306e-08 -2.01259e-07 -2.4747e-08 -1.19322e-08 -2.95378e-09 -1.13316e-09 -6.66428e-10 -4.35587e-08 -1.68271e-08
          -3.66528e-09 -1.20983e-07 -1.72665e-08 -3.29532e-07 -6.52191e-09 -3.07659e-08 -8.22284e-08 -2.09338e-07 -3.23604e-08 -3.17195e-09 -6.69004e-10 2.30773e-10
          7.32454e-11 -1.01269e-08 -6.37918e-09 -1.34196e-09 -6.18198e-08 -8.05709e-09 -1.42647e-07 -4.30267e-09 -1.86629e-08 -4.90215e-08 -1.07501e-07 -1.81772e-08
        </DataArray>
        <DataArray type="Float32" Name="velocity[1]" NumberOfComponents="1" format="ascii">
          4.03641e-24 1.26253e-23 1.79316e-25 -1.15156e-24 6.36997e-26 0 1.85449e-25 -3.56242e-26 1.05031e-25 5.06484e-24 -3.36502e-24 7.48422e-26
          2.13528e-24 -8.21655e-25 3.67919e-25 -2.86451e-24 1.74777e-24 1.65937e-25 -2.05351e-24 -2.365e-25 7.37002e-24 8.17319e-25 1.01578e-25 -6.9235e-24
          -2.22721e-25 0 -7.22793e-26 7.23825e-26 4.98663e-28 2.39812e-25 -2.0998e-25 -1.06577e-23 -2.11989e-24 4.98443e-24 -2.36829e-25 0
          7.1459e-25 8.06267e-26 -4.07725e-25 0 6.09354e-24 -9.45898e-24 0 9.9694e-25 -2.49778e-25 -6.01436e-25 1.49932e-23 -1.8176e-24
          -7.9363e-24 6.3873e-25 1.13484e-23 -1.89449e-23 2.53722e-23 -2.99834e-24 1.01275e-24 2.87247e-24 -3.85228e-24 2.75433e-24 -1.16574e-24 8.73247e-25
          -1.65587e-25 -7.75228e-23 7.21884e-24 1.37203e-23 -4.96158e-25 -7.8126e-24 1.63014e-25 -1.15665e-25 4.79498e-26 -5.00623e-24 3.35602e-24 -5.97328e-24
          -4.88963e-28 1.14136e-25 -1.33058e-24 -2.02944e-25 8.37774e-24 -7.82467e-25 1.05667e-23 2.05243e-25 -1.69246e-23 0 -1.84797e-25 5.10974e-26
          3.81177e-25 -2.92255e-25 4.59751e-24 -1.33489e-24 7.89643e-25 1.32952e-24 -1.41959e-24 1.88748e-24 0 1.18522e-23 -1.44867e-24 -2.77644e-23
          -1.12088e-25 -1.97557e-26 -2.25828e-24 2.86865e-28 -3.5963e-28 -6.71471e-28 3.62988e-26 -3.42801e-28 -1.47127e-24 -2.46166e-25 1.43036e-23 1.84863e-24
          3.33312e-24 -6.00737e-28 3.37989e-23 -4.26054e-28 -2.06991e-27 8.57e-26 -2.72812e-26 -2.7683e-24 -9.27232e-24 -3.81523e-28 -3.45345e-25 1.73132e-24
          -1.53937e-24 -9.30599e-24 -9.37516e-26 -2.36564e-24 -3.37325e-25 2.94714e-24 0 0 -8.11172e-25 4.38024e-28 9.4673e-25 2.28112e-24
          -7.20122e-28 4.7344e-26 -3.67264e-28 -1.17874e-23 6.78293e-25 1.61589e-24 -2.10537e-25 -2.65888e-24 3.99684e-24 -7.68624e-24 5.1782e-24 1.08166e-24
          -1.11751e-26 -1.01711e-24 2.34143e-24 -8.08313e-25 0 -1.9022e-24 4.21383e-24 8.77805e-26 7.4888e-25 -1.24948e-25 2.17365e-24 1.88801e-27
          -5.18012e-24 -1.22373e-24 1.11482e-24 2.27503e-25 1.18373e-24 5.97662e-24 2.00365e-24 -2.87755e-25 1.43878e-25 -5.1674e-24 1.49559e-24 -3.89153e-25
          -1.52892e-26 -3.67903e-25 -3.52685e-23 9.90766e-26 -1.56513e-23 -3.89095e-24 -5.06404e-25 -2.45851e-24 4.22117e-24 -1.88475e-24 1.05755e-24 -2.14171e-25
          5.05265e-24 1.03875e-23 0 -1.52708e-25 9.18186e-25 5.00769e-24 1.38939e-25 -1.35241e-23 -7.21988e-24 -4.09469e-29 -2.90106e-24 -1.31275e-24
          1.9038e-24 -6.29763e-25 3.7605e-28 -1.1545e-25 7.7772e-28 5.65537e-25 -4.07649e-25 -1.69189e-27 3.09505e-23 -7.73447e-27 6.62759e-24 2.01121e-23
          -9.10055e-24 2.90132e-24 4.35302e-24 -7.83427e-24 1.71069e-30 -2.69929e-24 -4.93723e-24 -9.00476e-24 -2.0427e-28 4.45428e-25 5.87642e-24 1.80387e-27
          1.17316e-25 3.37109e-24 2.45498e-25 0 0 6.51705e-25 5.93148e-24 -8.90606e-25 5.10491e-24 0 2.08249e-24 0
          -1.2821e-24 -5.02075e-24 1.81517e-27 6.30724e-26 -4.01946e-24 6.65978e-28 -1.18965e-28 -5.05039e-28 5.07499e-24 -1.10438e-27 -1.61312e-24 -2.4066e-24
          6.17221e-28 2.53971e-24 -2.26455e-28 5.35663e-26 2.43437e-24 -1.32608e-23 0 -1.34397e-23 0 7.71681e-28 3.52423e-24 -4.40467e-24
          -2.31219e-24 5.67382e-28 1.5572e-24 0 4.38244e-24 0 1.2295e-24 3.11917e-24 5.7435e-24 1.39444e-25 -5.32844e-24 -5.64142e-24
          -2.69137e-24 2.16039e-25 9.02117e-26 -2.23319e-28 -2.05507e-24 -1.24488e-24 4.38221e-24 -1.72496e-24 2.18708e-24 -2.068e-24 6.15326e-25 1.20431e-23
          -9.86291e-26 -4.47679e-24 1.12539e-23 6.45402e-24 -3.88352e-24 8.71786e-26 1.09272e-24 -7.63752e-28 1.22798e-24 -4.91338e-29 -3.83243e-24 8.19375e-25
          -1.89524e-24 -2.84334e-25 -3.72349e-24 -1.71013e-25 -6.39017e-24 -5.82824e-24 1.14085e-23 3.19577e-25 4.1732e-24 1.29907e-24 -4.44976e-25 -1.00604e-24
          -1.05761e-24 6.48218e-25 0 -3.32857e-26 -1.82597e-24 5.59827e-24 -9.84361e-24 9.84333e-24 -6.89532e-24 1.83643e-27 0 0
          2.95982e-25 -1.06121e-27 1.64174e-24 -1.22893e-24 -1.28348e-24 1.19262e-24 -2.01242e-24 -1.53672e-24 -1.62377e-24 2.89645e-26 7.42601e-25 -4.4908e-24
          1.59912e-23 -3.06391e-25 -7.64568e-24 5.40469e-25 1.12663e-24 -3.19689e-28 -8.6845e-25 -2.5676e-29 -2.2724e-29 1.2619e-25 -3.62183e-24 6.32274e-25
          -1.52513e-25 1.2186e-23 -5.05371e-24 0 -3.23789e-25 -1.01888e-24 7.76529e-24 -8.8132e-25 0 -4.92985e-25 -6.76584e-29 -4.03483e-25
          6.87895e-25 -1.57375e-24 -2.53596e-24 -4.16897e-25 -3.22586e-24 1.25217e-24 -3.46956e-23 0 3.47614e-23 -2.55753e-23 2.11871e-23 5.33065e-25
        </DataArray>
        <DataArray type="Float32" Name="velocity[2]" NumberOfComponents="1" format="ascii">
          -2.81527e-09 1.36794e-08 -4.21099e-09 -4.9512e-09 -3.21107e-09 -3.23769e-09 -2.98088e-09 -2.60475e-09 -2.56824e-09 -2.82721e-09 -2.81685e-09 -2.60046e-09
          -2.17668e-09 -1.76574e-09 -1.20949e-09 -7.09867e-09 2.73856e-08 -3.4415e-09 -7.56956e-09 -1.92411e-09 -1.87915e-09 -1.45766e-09 -1.98379e-09 -2.30487e-09
          -3.00048e-09 -2.97073e-09 -3.65872e-09 -2.45212e-09 -1.38939e-09 -1.62373e-09 -2.47391e-09 3.38655e-08 -9.96826e-10 -4.348e-09 -4.17336e-09 -3.53187e-09
          -2.26654e-09 -2.51684e-09 -3.34612e-09 -4.03292e-09 -3.41999e-09 -6.28276e-09 -2.97057e-09 -1.86067e-09 -2.19705e-09 -1.90428e-09 3.69579e-08 2.96944e-10
          9.54645e-09 -7.43253e-09 -8.86191e-09 -8.18825e-09 -5.85723e-09 -3.78998e-09 -4.52761e-09 -2.89755e-09 -8.6335e-09 -2.27225e-09 -2.15924e-09 -2.89937e-09
          -1.13458e-08 1.97828e-09 -1.24848e-09 -3.8181e-08 -1.66951e-08 -2.42936e-08 -2.26827e-08 -1.82028e-08 -3.88348e-09 -4.94634e-09 -4.0809e-09 -1.339e-08
          -1.0085e-09 -1.44537e-09 -3.20511e-09 -3.45708e-08 -4.46303e-08 -3.15492e-09 -6.48174e-08 -2.25583e-08 -5.13737e-08 -2.81711e-08 -3.94324e-08 -2.496e-09
          -2.7029e-09 -3.57064e-09 -1.79149e-08 -8.13594e-10 -1.19348e-09 -3.48193e-09 -3.57559e-08 -3.99084e-08 -2.48768e-09 -2.35709e-08 -1.62996e-08 -7.80483e-08
          -2.37032e-08 -6.50539e-08 -2.18095e-09 -1.93775e-09 -3.75187e-09 -2.11313e-08 -7.08091e-10 -1.01639e-09 -3.62656e-09 -3.20721e-08 -3.59067e-08 -2.4813e-09
          -5.44008e-09 -7.22256e-09 -8.62237e-08 -1.45398e-08 -8.56401e-08 -1.89828e-09 -1.60635e-09 -3.66051e-09 -2.32757e-08 -9.27266e-10 -1.37971e-09 -4.10416e-09
          -2.86738e-08 -3.12483e-08 -2.213e-09 -2.29821e-09 -4.91239e-09 -8.84737e-08 -6.50616e-09 -9.86421e-08 -1.32045e-09 -1.21815e-09 -4.52391e-09 -2.19767e-08
          -8.63958e-10 -1.26578e-09 -4.48917e-09 -2.41923e-08 -3.02148e-08 -3.84376e-09 -1.77933e-09 -3.79985e-09 -8.85194e-08 -3.90759e-09 -1.10016e-07 -1.26805e-09
          -1.18399e-09 -7.53039e-09 -1.90867e-08 -1.05783e-09 -1.21939e-09 -4.89341e-09 -1.72334e-08 -2.8028e-08 -5.14896e-09 -1.57748e-09 -3.3021e-09 -8.58905e-08
          -2.16054e-09 -1.15278e-07 -3.23494e-09 -1.64571e-09 -1.02238e-08 -1.71324e-08 -2.04421e-09 -1.30176e-09 -5.18671e-09 -1.32382e-08 -2.54893e-08 -5.78659e-09
          -1.06765e-09 -3.8221e-09 -8.25119e-08 -1.5772e-09 -9.88105e-08 -1.36282e-08 -3.58924e-09 -1.22825e-08 -1.54587e-08 -6.18473e-09 -2.32661e-09 -5.74301e-09
          -1.16452e-08 -2.42235e-08 -4.2721e-09 -9.82176e-10 -5.56874e-09 -7.57912e-08 -3.59013e-09 -6.7071e-08 -2.84122e-08 -4.41325e-09 -1.10893e-08 -1.13653e-08
          -1.30855e-08 -5.68364e-09 -6.90435e-09 -1.1383e-08 -2.55122e-08 -2.56395e-09 -1.34363e-09 -7.91187e-09 -6.5705e-08 -2.26972e-09 -5.43278e-08 -2.56676e-08
          -1.16602e-08 -9.12118e-09 -4.82391e-09 -1.25831e-08 -7.53216e-09 -5.96587e-09 -1.19916e-08 -2.3016e-08 -2.03422e-09 -2.05066e-09 -1.46563e-08 -5.14163e-08
          -2.51877e-09 -6.68705e-08 -1.6595e-08 -9.61196e-09 -6.93192e-09 -3.913e-09 -1.03817e-08 -1.03276e-08 -5.16597e-09 -1.375e-08 -1.87242e-08 -2.45974e-09
          -3.36141e-09 -1.96378e-08 -5.06494e-08 -3.08346e-09 -6.84912e-08 -2.17382e-08 -8.78913e-09 -5.57854e-09 -5.81962e-09 -1.26976e-08 -1.52797e-08 -4.10946e-09
          -1.29746e-08 -1.46259e-08 -4.09036e-09 -4.9885e-09 -1.53956e-08 -4.88691e-08 -4.27456e-09 -6.05539e-08 -2.43393e-08 -1.28314e-08 -3.90089e-09 -4.5094e-09
          -1.13887e-08 -2.27925e-08 -3.09245e-09 -1.11831e-08 -8.71956e-09 -2.90531e-09 -3.5609e-09 -2.09352e-08 -3.70337e-08 -5.41587e-09 -5.10885e-08 -2.81712e-08
          -1.87251e-08 -3.55265e-09 -3.83349e-09 -7.44847e-09 -2.80723e-08 -2.50973e-09 -1.07929e-08 -6.17315e-09 -2.07371e-09 -1.8812e-09 -2.43708e-08 -2.42343e-08
          -5.11111e-09 -3.95236e-08 -3.00802e-08 -3.00073e-08 -3.68631e-09 -4.06314e-09 -8.62246e-09 -3.21436e-08 -2.76973e-09 -9.42443e-09 -4.523e-09 -1.43975e-09
          -1.35673e-09 -2.49702e-08 -1.44268e-08 -4.5194e-09 -3.02146e-08 -2.29507e-08 -5.12508e-08 -3.74658e-09 -3.80705e-09 -1.0578e-08 -3.39935e-08 -3.51461e-09
          -7.53182e-09 -3.62978e-09 -1.59197e-09 -1.27642e-09 -2.33102e-08 -8.98536e-09 -4.17678e-09 -2.44487e-08 -1.15886e-08 -6.76935e-08 -4.12966e-09 -4.73641e-09
          -1.29919e-08 -3.58328e-08 -3.91953e-09 -5.01099e-09 -2.48436e-09 -1.7576e-09 -1.44857e-09 -1.79948e-08 -7.67022e-09 -4.51368e-09 -2.36177e-08 -7.39394e-09
          -7.13658e-08 -5.26296e-09 -7.21263e-09 -1.455e-08 -3.83059e-08 -5.57041e-09 -2.47661e-09 -1.34678e-09 -1.24476e-09 -1.34135e-09 -1.01883e-08 -6.90739e-09
          -4.80252e-09 -2.54448e-08 -7.15443e-09 -6.40551e-08 -8.73329e-09 -1.24817e-08 -2.01078e-08 -4.05216e-08 -7.03783e-09 -7.70795e-10 -5.74389e-10 -4.2923e-10
          -4.33404e-10 -2.76854e-09 -2.94553e-09 -2.39077e-09 -1.47393e-08 -7.39148e-09 -3.73107e-08 -1.59989e-08 -1.40359e-08 -1.60528e-08 -2.25017e-08 -3.77692e-09
        </DataArray>
        <DataArray type="Float32" Name="z[0]" NumberOfComponents="1" format="ascii">
          0.150578 0.150579 0.15058 0.150582 0.150582 0.150583 0.150584 0.150585 0.150585 0.150586 0.150587 0.150588
          0.150589 0.150591 0.150596 0.150581 0.150582 0.150583 0.150585 0.150586 0.150587 0.150587 0.150588 0.150588
          0.150589 0.15059 0.150591 0.150593 0.150595 0.150599 0.150584 0.150585 0.150587 0.150588 0.150589 0.15059
          0.15059 0.150591 0.150592 0.150593 0.150593 0.150595 0.150596 0.150598 0.150602 0.150588 0.150589 0.15059
          0.150591 0.150592 0.150593 0.150594 0.150594 0.150595 0.150596 0.150597 0.150598 0.150599 0.150601 0.150605
          0.150591 0.150592 0.150593 0.150594 0.150595 0.150596 0.150597 0.150597 0.150598 0.150599 0.1506 0.150601
          0.150602 0.150604 0.150609 0.150594 0.150595 0.150596 0.150597 0.150598 0.150599 0.1506 0.1506 0.150601