<?xml version="1.0"?>
<VTKFile type="UnstructuredGrid" version="0.1" byte_order="LittleEndian">
  <UnstructuredGrid>
    <Piece NumberOfCells="360" NumberOfPoints="800">
      <CellData Scalars="pressure[0]">
        <DataArray type="Float32" Name="pressure[0]" NumberOfComponents="1" format="ascii">
          2.11583e+07 2.1173e+07 2.22569e+07 2.31681e+07 2.35365e+07 2.39571e+07 2.40928e+07 2.41421e+07 2.42014e+07 2.42639e+07 2.44308e+07 2.47108e+07
          2.49251e+07 2.55183e+07 2.62253e+07 2.12028e+07 2.12175e+07 2.24153e+07 2.33746e+07 2.37372e+07 2.41547e+07 2.42524e+07 2.42901e+07 2.43501e+07
          2.44202e+07 2.46563e+07 2.49458e+07 2.5112e+07 2.57152e+07 2.63899e+07 2.12477e+07 2.12621e+07 2.24753e+07 2.35454e+07 2.38709e+07 2.42586e+07
          2.43795e+07 2.44368e+07 2.45151e+07 2.46148e+07 2.49363e+07 2.52618e+07 2.54213e+07 2.59671e+07 2.65957e+07 2.12934e+07 2.13136e+07 2.23075e+07
          2.36938e+07 2.3989e+07 2.43755e+07 2.46024e+07 2.46774e+07 2.47762e+07 2.48902e+07 2.53024e+07 2.56693e+07 2.58181e+07 2.62598e+07 2.68482e+07
          2.13636e+07 2.13936e+07 1.9774e+07 2.38265e+07 2.44237e+07 2.50244e+07 2.51081e+07 2.51496e+07 2.52172e+07 2.55108e+07 2.57934e+07 2.61077e+07
          2.62185e+07 2.65822e+07 2.7095e+07 2.15458e+07 2.15894e+07 2.18804e+07 2.45702e+07 2.50867e+07 2.55601e+07 2.56522e+07 2.57942e+07 2.61085e+07
          2.68882e+07 2.68087e+07 2.6519e+07 2.65909e+07 2.69062e+07 2.73685e+07 2.17584e+07 2.1807e+07 2.25993e+07 2.52899e+07 2.57169e+07 2.60742e+07
          2.61334e+07 2.62073e+07 2.62642e+07 2.65479e+07 2.67224e+07 2.67647e+07 2.68568e+07 2.72442e+07 2.77407e+07 2.20909e+07 2.21492e+07 2.30855e+07
          2.5767e+07 2.62455e+07 2.6507e+07 2.65581e+07 2.66052e+07 2.66552e+07 2.67959e+07 2.69178e+07 2.6976e+07 2.71357e+07 2.75878e+07 2.82465e+07
          2.24639e+07 2.25144e+07 2.35164e+07 2.60562e+07 2.6735e+07 2.69469e+07 2.70256e+07 2.71019e+07 2.70528e+07 2.70945e+07 2.71475e+07 2.71805e+07
          2.73615e+07 2.79657e+07 2.87496e+07 2.30003e+07 2.31395e+07 2.39885e+07 2.579e+07 2.71496e+07 2.73294e+07 2.75123e+07 2.76855e+07 2.7497e+07
          2.74324e+07 2.74296e+07 2.74416e+07 2.7677e+07 2.83438e+07 2.90594e+07 2.4384e+07 2.46634e+07 2.50458e+07 2.61214e+07 2.74757e+07 2.76166e+07
          2.79165e+07 2.81834e+07 2.7973e+07 2.78437e+07 2.77999e+07 2.7928e+07 2.80804e+07 2.86644e+07 2.96413e+07 2.58341e+07 2.5947e+07 2.60431e+07
          2.65453e+07 2.78017e+07 2.78974e+07 2.8332e+07 2.86983e+07 2.87852e+07 2.86648e+07 2.85761e+07 2.86419e+07 2.90318e+07 2.97914e+07 3.02966e+07
          2.68238e+07 2.68501e+07 2.67215e+07 2.73058e+07 2.82638e+07 2.83551e+07 2.88237e+07 2.92404e+07 2.9335e+07 2.93718e+07 2.9388e+07 2.95808e+07
          3.00153e+07 3.0748e+07 3.08717e+07 2.76286e+07 2.76591e+07 2.74105e+07 2.83187e+07 2.90012e+07 2.90765e+07 2.94641e+07 2.97751e+07 2.98414e+07
          2.99259e+07 3.00108e+07 3.04256e+07 3.09686e+07 3.13978e+07 3.1249e+07 2.829e+07 2.82937e+07 2.82249e+07 2.92917e+07 2.9688e+07 2.97455e+07
          3.0007e+07 3.01955e+07 3.02447e+07 3.032e+07 3.04631e+07 3.11037e+07 3.16063e+07 3.1773e+07 3.16909e+07 2.88841e+07 2.89149e+07 2.90588e+07
          2.99217e+07 3.01164e+07 3.01688e+07 3.03546e+07 3.0479e+07 3.05263e+07 3.05948e+07 3.08509e+07 3.14672e+07 3.19283e+07 3.22014e+07 3.21093e+07
          2.94916e+07 2.95441e+07 2.99117e+07 3.03661e+07 3.04711e+07 3.05105e+07 3.06117e+07 3.07001e+07 3.07465e+07 3.08066e+07 3.11398e+07 3.18698e+07
          3.23641e+07 3.26299e+07 3.24951e+07 2.9987e+07 3.00459e+07 3.03716e+07 3.06202e+07 3.0731e+07 3.07754e+07 3.08554e+07 3.09223e+07 3.09704e+07
          3.1026e+07 3.14327e+07 3.22023e+07 3.27066e+07 3.29277e+07 3.28797e+07 3.02766e+07 3.0341e+07 3.05366e+07 3.08153e+07 3.09613e+07 3.10086e+07
          3.10796e+07 3.1139e+07 3.11838e+07 3.12376e+07 3.16835e+07 3.2532e+07 3.30478e+07 3.32181e+07 3.33993e+07 3.05132e+07 3.05709e+07 3.0747e+07
          3.10237e+07 3.11675e+07 3.12152e+07 3.12843e+07 3.13409e+07 3.1386e+07 3.1445e+07 3.18864e+07 3.28197e+07 3.33849e+07 3.35227e+07 3.38953e+07
          3.07158e+07 3.07802e+07 3.0922e+07 3.11782e+07 3.1355e+07 3.14067e+07 3.14806e+07 3.15403e+07 3.15985e+07 3.16711e+07 3.22913e+07 3.3288e+07
          3.37e+07 3.38444e+07 3.42898e+07 3.0911e+07 3.09774e+07 3.11048e+07 3.1355e+07 3.15348e+07 3.15909e+07 3.16757e+07 3.17435e+07 3.18172e+07
          3.18999e+07 3.27333e+07 3.37677e+07 3.40254e+07 3.4197e+07 3.46752e+07 3.10911e+07 3.11525e+07 3.13037e+07 3.15666e+07 3.17146e+07 3.1778e+07
          3.18769e+07 3.1955e+07 3.20483e+07 3.21496e+07 3.31129e+07 3.41691e+07 3.43911e+07 3.4581e+07 3.49614e+07 3.12579e+07 3.13167e+07 3.14505e+07
          3.17136e+07 3.1901e+07 3.19658e+07 3.20765e+07 3.21668e+07 3.22794e+07 3.2413e+07 3.35288e+07 3.45227e+07 3.47678e+07 3.49414e+07 3.52184e+07
        </DataArray>
        <DataArray type="Float32" Name="pressure[1]" NumberOfComponents="1" format="ascii">
          2.11583e+07 2.1173e+07 2.22569e+07 2.31681e+07 2.35365e+07 2.39571e+07 2.40928e+07 2.41421e+07 2.42014e+07 2.42639e+07 2.44308e+07 2.47108e+07
          2.49251e+07 2.55183e+07 2.62253e+07 2.12028e+07 2.12175e+07 2.24153e+07 2.33746e+07 2.37372e+07 2.41547e+07 2.42524e+07 2.42901e+07 2.43501e+07
          2.44202e+07 2.46563e+07 2.49458e+07 2.5112e+07 2.57152e+07 2.63899e+07 2.12477e+07 2.12621e+07 2.24753e+07 2.35454e+07 2.38709e+07 2.42586e+07
          2.43795e+07 2.44368e+07 2.45151e+07 2.46148e+07 2.49363e+07 2.52618e+07 2.54213e+07 2.59671e+07 2.65957e+07 2.12934e+07 2.13136e+07 2.23075e+07
          2.36938e+07 2.3989e+07 2.43755e+07 2.46024e+07 2.46774e+07 2.47762e+07 2.48902e+07 2.53024e+07 2.56693e+07 2.58181e+07 2.62598e+07 2.68482e+07
          2.13636e+07 2.13936e+07 1.9774e+07 2.38265e+07 2.44237e+07 2.50244e+07 2.51081e+07 2.51496e+07 2.52172e+07 2.55108e+07 2.57934e+07 2.61077e+07
          2.62185e+07 2.65822e+07 2.7095e+07 2.15458e+07 2.15894e+07 2.18804e+07 2.45702e+07 2.50867e+07 2.55601e+07 2.56522e+07 2.57942e+07 2.61085e+07
          2.68882e+07 2.68087e+07 2.6519e+07 2.65909e+07 2.69062e+07 2.73685e+07 2.17584e+07 2.1807e+07 2.25993e+07 2.52899e+07 2.57169e+07 2.60742e+07
          2.61334e+07 2.62073e+07 2.62642e+07 2.65479e+07 2.67224e+07 2.67647e+07 2.68568e+07 2.72442e+07 2.77407e+07 2.20909e+07 2.21492e+07 2.30855e+07
          2.5767e+07 2.62455e+07 2.6507e+07 2.65581e+07 2.66052e+07 2.66552e+07 2.67959e+07 2.69178e+07 2.6976e+07 2.71357e+07 2.75878e+07 2.82465e+07
          2.24639e+07 2.25144e+07 2.35164e+07 2.60562e+07 2.6735e+07 2.69469e+07 2.70256e+07 2.71019e+07 2.70528e+07 2.70945e+07 2.71475e+07 2.71805e+07
          2.73615e+07 2.79657e+07 2.87496e+07 2.30003e+07 2.31395e+07 2.39885e+07 2.579e+07 2.71496e+07 2.73294e+07 2.75123e+07 2.76855e+07 2.7497e+07
          2.74324e+07 2.74296e+07 2.74416e+07 2.7677e+07 2.83438e+07 2.90594e+07 2.4384e+07 2.46634e+07 2.50458e+07 2.61214e+07 2.74757e+07 2.76166e+07
          2.79165e+07 2.81834e+07 2.7973e+07 2.78437e+07 2.77999e+07 2.7928e+07 2.80804e+07 2.86644e+07 2.96413e+07 2.58341e+07 2.5947e+07 2.60431e+07
          2.65453e+07 2.78017e+07 2.78974e+07 2.8332e+07 2.86983e+07 2.87852e+07 2.86648e+07 2.85761e+07 2.86419e+07 2.90318e+07 2.97914e+07 3.02966e+07
          2.68238e+07 2.68501e+07 2.67215e+07 2.73058e+07 2.82638e+07 2.83551e+07 2.88237e+07 2.92404e+07 2.9335e+07 2.93718e+07 2.9388e+07 2.95808e+07
          3.00153e+07 3.0748e+07 3.08717e+07 2.76286e+07 2.76591e+07 2.74105e+07 2.83187e+07 2.90012e+07 2.90765e+07 2.94641e+07 2.97751e+07 2.98414e+07
          2.99259e+07 3.00108e+07 3.04256e+07 3.09686e+07 3.13978e+07 3.1249e+07 2.829e+07 2.82937e+07 2.82249e+07 2.92917e+07 2.9688e+07 2.97455e+07
          3.0007e+07 3.01955e+07 3.02447e+07 3.032e+07 3.04631e+07 3.11037e+07 3.16063e+07 3.1773e+07 3.16909e+07 2.88841e+07 2.89149e+07 2.90588e+07
          2.99217e+07 3.01164e+07 3.01688e+07 3.03546e+07 3.0479e+07 3.05263e+07 3.05948e+07 3.08509e+07 3.14672e+07 3.19283e+07 3.22014e+07 3.21093e+07
          2.94916e+07 2.95441e+07 2.99117e+07 3.03661e+07 3.04711e+07 3.05105e+07 3.06117e+07 3.07001e+07 3.07465e+07 3.08066e+07 3.11398e+07 3.18698e+07
          3.23641e+07 3.26299e+07 3.24951e+07 2.9987e+07 3.00459e+07 3.03716e+07 3.06202e+07 3.0731e+07 3.07754e+07 3.08554e+07 3.09223e+07 3.09704e+07
          3.1026e+07 3.14327e+07 3.22023e+07 3.27066e+07 3.29277e+07 3.28797e+07 3.02766e+07 3.0341e+07 3.05366e+07 3.08153e+07 3.09613e+07 3.10086e+07
          3.10796e+07 3.1139e+07 3.11838e+07 3.12376e+07 3.16835e+07 3.2532e+07 3.30478e+07 3.32181e+07 3.33993e+07 3.05132e+07 3.05709e+07 3.0747e+07
          3.10237e+07 3.11675e+07 3.12152e+07 3.12843e+07 3.13409e+07 3.1386e+07 3.1445e+07 3.18864e+07 3.28197e+07 3.33849e+07 3.35227e+07 3.38953e+07
          3.07158e+07 3.07802e+07 3.0922e+07 3.11782e+07 3.1355e+07 3.14067e+07 3.14806e+07 3.15403e+07 3.15985e+07 3.16711e+07 3.22913e+07 3.3288e+07
          3.37e+07 3.38444e+07 3.42898e+07 3.0911e+07 3.09774e+07 3.11048e+07 3.1355e+07 3.15348e+07 3.15909e+07 3.16757e+07 3.17435e+07 3.18172e+07
          3.18999e+07 3.27333e+07 3.37677e+07 3.40254e+07 3.4197e+07 3.46752e+07 3.10911e+07 3.11525e+07 3.13037e+07 3.15666e+07 3.17146e+07 3.1778e+07
          3.18769e+07 3.1955e+07 3.20483e+07 3.21496e+07 3.31129e+07 3.41691e+07 3.43911e+07 3.4581e+07 3.49614e+07 3.12579e+07 3.13167e+07 3.14505e+07
          3.17136e+07 3.1901e+07 3.19658e+07 3.20765e+07 3.21668e+07 3.22794e+07 3.2413e+07 3.35288e+07 3.45227e+07 3.47678e+07 3.49414e+07 3.52184e+07
        </DataArray>
        <DataArray type="Float32" Name="pressure[2]" NumberOfComponents="1" format="ascii">
          2.11583e+07 2.1173e+07 2.22569e+07 2.31681e+07 2.35365e+07 2.39571e+07 2.40928e+07 2.41421e+07 2.42014e+07 2.42639e+07 2.44308e+07 2.47108e+07
          2.49251e+07 2.55183e+07 2.62253e+07 2.12028e+07 2.12175e+07 2.24153e+07 2.33746e+07 2.37372e+07 2.41547e+07 2.42524e+07 2.42901e+07 2.43501e+07
          2.44202e+07 2.46563e+07 2.49458e+07 2.5112e+07 2.57152e+07 2.63899e+07 2.12477e+07 2.12621e+07 2.24753e+07 2.35454e+07 2.38709e+07 2.42586e+07
          2.43795e+07 2.44368e+07 2.45151e+07 2.46148e+07 2.49363e+07 2.52618e+07 2.54213e+07 2.59671e+07 2.65957e+07 2.12934e+07 2.13136e+07 2.23075e+07
          2.36938e+07 2.3989e+07 2.43755e+07 2.46024e+07 2.46774e+07 2.47762e+07 2.48902e+07 2.53024e+07 2.56693e+07 2.58181e+07 2.62598e+07 2.68482e+07
          2.13636e+07 2.13936e+07 1.9774e+07 2.38265e+07 2.44237e+07 2.50244e+07 2.51081e+07 2.51496e+07 2.52172e+07 2.55108e+07 2.57934e+07 2.61077e+07
          2.62185e+07 2.65822e+07 2.7095e+07 2.15458e+07 2.15894e+07 2.18804e+07 2.45702e+07 2.50867e+07 2.55601e+07 2.56522e+07 2.57942e+07 2.61085e+07
          2.68882e+07 2.68087e+07 2.6519e+07 2.65909e+07 2.69062e+07 2.73685e+07 2.17584e+07 2.1807e+07 2.25993e+07 2.52899e+07 2.57169e+07 2.60742e+07
          2.61334e+07 2.62073e+07 2.62642e+07 2.65479e+07 2.67224e+07 2.67647e+07 2.68568e+07 2.72442e+07 2.77407e+07 2.20909e+07 2.21492e+07 2.30855e+07
          2.5767e+07 2.62455e+07 2.6507e+07 2.65581e+07 2.66052e+07 2.66552e+07 2.67959e+07 2.69178e+07 2.6976e+07 2.71357e+07 2.75878e+07 2.82465e+07
          2.24639e+07 2.25144e+07 2.35164e+07 2.60562e+07 2.6735e+07 2.69469e+07 2.70256e+07 2.71019e+07 2.70528e+07 2.70945e+07 2.71475e+07 2.71805e+07
          2.73615e+07 2.79657e+07 2.87496e+07 2.30003e+07 2.31395e+07 2.39885e+07 2.579e+07 2.71496e+07 2.73294e+07 2.75123e+07 2.76855e+07 2.7497e+07
          2.74324e+07 2.74296e+07 2.74416e+07 2.7677e+07 2.83438e+07 2.90594e+07 2.4384e+07 2.46634e+07 2.50458e+07 2.61214e+07 2.74757e+07 2.76166e+07
          2.79165e+07 2.81834e+07 2.7973e+07 2.78437e+07 2.77999e+07 2.7928e+07 2.80804e+07 2.86644e+07 2.96413e+07 2.58341e+07 2.5947e+07 2.60431e+07
          2.65453e+07 2.78017e+07 2.78974e+07 2.8332e+07 2.86983e+07 2.87852e+07 2.86648e+07 2.85761e+07 2.86419e+07 2.90318e+07 2.97914e+07 3.02966e+07
          2.68238e+07 2.68501e+07 2.67215e+07 2.73058e+07 2.82638e+07 2.83551e+07 2.88237e+07 2.92404e+07 2.9335e+07 2.93718e+07 2.9388e+07 2.95808e+07
          3.00153e+07 3.0748e+07 3.08717e+07 2.76286e+07 2.76591e+07 2.74105e+07 2.83187e+07 2.90012e+07 2.90765e+07 2.94641e+07 2.97751e+07 2.98414e+07
          2.99259e+07 3.00108e+07 3.04256e+07 3.09686e+07 3.13978e+07 3.1249e+07 2.829e+07 2.82937e+07 2.82249e+07 2.92917e+07 2.9688e+07 2.97455e+07
          3.0007e+07 3.01955e+07 3.02447e+07 3.032e+07 3.04631e+07 3.11037e+07 3.16063e+07 3.1773e+07 3.16909e+07 2.88841e+07 2.89149e+07 2.90588e+07
          2.99217e+07 3.01164e+07 3.01688e+07 3.03546e+07 3.0479e+07 3.05263e+07 3.05948e+07 3.08509e+07 3.14672e+07 3.19283e+07 3.22014e+07 3.21093e+07
          2.94916e+07 2.95441e+07 2.99117e+07 3.03661e+07 3.04711e+07 3.05105e+07 3.06117e+07 3.07001e+07 3.07465e+07 3.08066e+07 3.11398e+07 3.18698e+07
          3.23641e+07 3.26299e+07 3.24951e+07 2.9987e+07 3.00459e+07 3.03716e+07 3.06202e+07 3.0731e+07 3.07754e+07 3.08554e+07 3.09223e+07 3.09704e+07
          3.1026e+07 3.14327e+07 3.22023e+07 3.27066e+07 3.29277e+07 3.28797e+07 3.02766e+07 3.0341e+07 3.05366e+07 3.08153e+07 3.09613e+07 3.10086e+07
          3.10796e+07 3.1139e+07 3.11838e+07 3.12376e+07 3.16835e+07 3.2532e+07 3.30478e+07 3.32181e+07 3.33993e+07 3.05132e+07 3.05709e+07 3.0747e+07
          3.10237e+07 3.11675e+07 3.12152e+07 3.12843e+07 3.13409e+07 3.1386e+07 3.1445e+07 3.18864e+07 3.28197e+07 3.33849e+07 3.35227e+07 3.38953e+07
          3.07158e+07 3.07802e+07 3.0922e+07 3.11782e+07 3.1355e+07 3.14067e+07 3.14806e+07 3.15403e+07 3.15985e+07 3.16711e+07 3.22913e+07 3.3288e+07
          3.37e+07 3.38444e+07 3.42898e+07 3.0911e+07 3.09774e+07 3.11048e+07 3.1355e+07 3.15348e+07 3.15909e+07 3.16757e+07 3.17435e+07 3.18172e+07
          3.18999e+07 3.27333e+07 3.37677e+07 3.40254e+07 3.4197e+07 3.46752e+07 3.10911e+07 3.11525e+07 3.13037e+07 3.15666e+07 3.17146e+07 3.1778e+07
          3.18769e+07 3.1955e+07 3.20483e+07 3.21496e+07 3.31129e+07 3.41691e+07 3.43911e+07 3.4581e+07 3.49614e+07 3.12579e+07 3.13167e+07 3.14505e+07
          3.17136e+07 3.1901e+07 3.19658e+07 3.20765e+07 3.21668e+07 3.22794e+07 3.2413e+07 3.35288e+07 3.45227e+07 3.47678e+07 3.49414e+07 3.52184e+07
        </DataArray>
        <DataArray type="Float32" Name="velocity[0]" NumberOfComponents="1" format="ascii">
          -1.80251e-09 6.73631e-08 -1.92085e-10 -2.16818e-08 -7.45728e-10 -2.62503e-09 -3.82165e-09 -1.13812e-09 -2.41281e-09 -3.07765e-09 -2.26999e-09 -3.33804e-09
          -2.48548e-09 -6.12369e-10 -2.45229e-09 -1.02983e-08 1.9879e-07 3.12926e-10 -7.66446e-08 -6.48728e-10 -4.04698e-10 -6.21073e-10 -1.95267e-09 -8.10108e-09
          -9.62693e-09 -4.93936e-09 -1.35826e-08 -8.49304e-09 -1.89682e-09 -6.50599e-09 -3.49951e-08 3.07602e-07 1.71986e-09 -9.17622e-08 6.2551e-10 4.00743e-09
          -1.09572e-09 -7.42627e-09 -1.8178e-08 -1.54255e-08 -6.32679e-09 -3.2921e-08 -1.12677e-08 -3.9015e-09 -9.69119e-09 -3.63272e-08 3.43841e-07 1.00968e-08
          -2.76491e-08 -1.74295e-09 -1.39263e-08 -2.82632e-08 -2.67108e-08 -2.62513e-08 -2.83477e-08 -8.59009e-09 -6.22221e-08 -7.87621e-09 -5.44637e-09 -1.30429e-08
          -6.96579e-08 8.27091e-08 3.53748e-09 -6.37368e-08 -8.68127e-09 -4.77081e-08 -6.67553e-08 -7.20404e-08 -3.00544e-08 -3.73816e-08 -1.90675e-08 -1.18537e-07
          -4.12104e-09 -4.87446e-09 -1.58639e-08 -1.19118e-07 -1.46979e-07 -6.74431e-09 -1.01553e-07 -1.47745e-08 -9.79664e-08 -7.01594e-08 -9.37279e-08 -1.6484e-08
          -1.50007e-08 -7.82557e-09 -1.26758e-07 -2.23989e-09 -3.77165e-09 -1.76683e-08 -1.30605e-07 -1.41757e-07 -2.41906e-09 -3.3323e-08 -1.37748e-08 -1.59331e-07
          -4.64402e-08 -1.29173e-07 -2.94747e-09 2.41502e-09 3.2353e-09 -9.43369e-08 -1.49735e-09 -3.54191e-09 -1.88833e-08 -1.17034e-07 -1.25922e-07 -2.23085e-09
          -5.25891e-09 -8.7534e-09 -1.9326e-07 -2.71735e-08 -2.11834e-07 -4.5928e-09 -1.22495e-09 -8.63805e-09 -9.42244e-08 -1.12228e-09 -3.52035e-09 -2.02925e-08
          -9.85464e-08 -1.08804e-07 -3.21958e-09 9.29039e-11 -5.85082e-09 -2.03051e-07 -1.09648e-08 -2.7564e-07 -3.37267e-09 -1.71419e-09 -1.85351e-08 -8.7028e-08
          -1.06325e-09 -3.09033e-09 -2.21982e-08 -7.76651e-08 -1.00976e-07 -1.84621e-08 4.10704e-10 -4.33486e-09 -2.0339e-07 -3.66836e-09 -3.35095e-07 -3.60514e-09
          -2.72009e-09 -4.19004e-08 -5.70524e-08 -2.42101e-09 -2.58816e-09 -2.41258e-08 -4.13912e-08 -6.72105e-08 -4.24339e-08 -7.07918e-10 -4.17763e-09 -2.00855e-07
          -1.2409e-09 -3.95406e-07 -4.77909e-09 -3.27995e-09 -4.74874e-08 -3.8271e-08 -4.60802e-09 -3.54555e-09 -2.53907e-08 -2.98705e-08 -5.40485e-08 -5.0316e-08
          -9.92138e-10 -6.81866e-09 -2.02014e-07 -1.02807e-09 -4.27833e-07 -1.26629e-08 -3.59742e-09 -3.30948e-08 -3.40962e-08 -1.05171e-08 -5.49077e-09 -2.58881e-08
          -2.82856e-08 -5.63522e-08 -3.94633e-08 -1.44039e-09 -1.14013e-08 -1.89828e-07 -1.44351e-09 -4.25889e-07 -3.72936e-08 -4.9999e-09 -2.30022e-08 -1.7295e-08
          -2.14844e-08 -9.87245e-09 -2.58768e-08 -3.18489e-08 -6.59871e-08 -2.33845e-08 -2.06261e-09 -1.62596e-08 -1.73122e-07 -1.45043e-09 -3.9478e-07 -6.59742e-08
          -9.84086e-09 -1.35714e-08 -5.21239e-09 -2.58892e-08 -1.96384e-08 -2.44474e-08 -3.98146e-08 -6.28864e-08 -1.20641e-08 -2.2823e-09 -2.1506e-08 -1.68873e-07
          -1.01396e-09 -3.5325e-07 -7.94596e-08 -1.715e-08 -9.89037e-09 -2.80724e-09 -2.41297e-08 -3.15325e-08 -2.16341e-08 -4.86261e-08 -4.98247e-08 -5.43916e-09
          -2.71081e-09 -2.68749e-08 -1.65646e-07 -1.22991e-09 -2.98407e-07 -8.26309e-08 -2.49167e-08 -6.33514e-09 -3.86998e-09 -2.73831e-08 -4.69055e-08 -1.81265e-08
          -5.13066e-08 -3.91433e-08 -2.78838e-09 -3.49772e-09 -3.7808e-08 -1.44197e-07 -2.37858e-09 -2.35893e-07 -8.29681e-08 -3.90119e-08 -2.74752e-09 -3.84518e-09
          -2.24762e-08 -6.99275e-08 -1.43586e-08 -4.99566e-08 -3.1045e-08 -1.23434e-09 -2.34054e-09 -5.56216e-08 -1.03338e-07 -3.66028e-09 -1.80555e-07 -8.95249e-08
          -5.87678e-08 -1.96893e-09 -2.60594e-09 -1.46284e-08 -9.1593e-08 -1.11928e-08 -4.47893e-08 -2.20074e-08 -9.06196e-10 -9.66399e-10 -6.89243e-08 -6.55326e-08
          -3.85092e-09 -1.29059e-07 -8.9571e-08 -9.24994e-08 -1.14371e-09 -2.15097e-09 -1.91825e-08 -1.04845e-07 -9.79613e-09 -3.70468e-08 -1.47962e-08 -1.12018e-09
          -4.62555e-10 -7.35672e-08 -3.73133e-08 -3.21787e-09 -9.44636e-08 -5.79973e-08 -1.60687e-07 -2.01263e-09 -3.0717e-09 -2.85246e-08 -1.11322e-07 -1.05475e-08
          -2.82725e-08 -9.97082e-09 -1.04519e-09 -1.09601e-10 -6.85069e-08 -1.95573e-08 -2.76456e-09 -7.43377e-08 -2.42971e-08 -2.2322e-07 -3.1647e-09 -5.66704e-09
          -3.46755e-08 -1.16462e-07 -1.21266e-08 -1.77668e-08 -5.07897e-09 -1.67921e-09 -6.40807e-10 -5.0728e-08 -1.33444e-08 -2.71103e-09 -7.03536e-08 -1.32021e-08
          -2.36133e-07 -2.88444e-09 -1.08705e-08 -3.7973e-08 -1.21678e-07 -1.50581e-08 -8.28615e-09 -2.02723e-09 -7.56368e-10 -4.22729e-10 -2.53863e-08 -9.99437e-09
          -2.23097e-09 -7.44502e-08 -1.06549e-08 -2.03533e-07 -4.00078e-09 -1.87335e-08 -4.99087e-08 -1.26889e-07 -1.96736e-08 -2.19392e-09 -4.56034e-10 1.70201e-10
          6.57767e-11 -6.01333e-09 -3.82088e-09 -8.17943e-10 -3.79909e-08 -4.96581e-09 -8.80141e-08 -2.63996e-09 -1.13652e-08 -2.98321e-08 -6.52452e-08 -1.10494e-08
        </DataArray>
        <DataArray type="Float32" Name="velocity[1]" NumberOfComponents="1" format="ascii">
          2.80132e-25 1.11106e-23 7.90399e-26 -3.3696e-24 1.15895e-25 0 5.93929e-25 1.57538e-25 -6.64033e-26 5.47906e-24 -3.43325e-24 -2.67287e-26
          2.14972e-24 -9.11518e-25 3.80275e-25 1.04021e-24 9.4761e-24 7.67353e-26 -5.17227e-24 -1.09662e-25 9.15748e-24 1.26534e-24 1.09712e-25 -9.01008e-24
          -1.15955e-27 0 -1.16568e-26 -4.15114e-26 -8.10966e-27 2.48879e-25 2.79797e-24 -1.41544e-23 -3.61781e-24 2.82281e-24 8.86587e-26 0
          1.22308e-24 9.03261e-25 -1.05703e-24 0 6.27417e-24 -1.06157e-23 0 9.7634e-25 -2.42031e-25 -5.47675e-24 2.51176e-23 -2.33296e-24
          2.95013e-24 1.27352e-24 1.03253e-23 -1.6748e-23 2.19012e-23 -1.3571e-24 -6.50677e-24 3.40978e-24 -3.76821e-24 2.44048e-24 -1.09197e-24 8.22514e-25
          -1.25041e-25 -7.85213e-23 3.55791e-24 4.35181e-24 7.51234e-26 -2.40444e-24 -8.57325e-25 2.08515e-24 7.147e-24 -6.46928e-24 5.45647e-24 -9.31941e-24
          7.11003e-26 1.33138e-25 -1.31455e-24 -1.40062e-24 7.12874e-24 -2.84585e-25 4.13708e-24 -1.80631e-25 1.21372e-24 0 -2.05183e-23 2.66549e-25
          -9.46637e-24 -2.35325e-23 1.68393e-23 -1.08961e-24 5.4152e-25 1.31889e-24 -6.68227e-25 -6.25078e-24 0 3.67165e-24 -5.5711e-25 -1.23016e-23
          3.01569e-24 -2.47611e-24 5.26345e-25 -4.08325e-27 3.6357e-25 3.05397e-25 -1.71735e-25 2.11715e-26 -1.43132e-24 -2.47736e-24 1.03903e-23 1.10742e-24
          1.31918e-24 -1.14114e-26 1.32691e-23 6.87699e-25 -4.23686e-25 5.50215e-25 1.40209e-25 -1.06844e-24 -6.92928e-24 1.40342e-25 -2.32351e-25 1.65032e-24
          2.5308e-24 -7.57259e-24 -2.3644e-25 -1.65546e-24 -1.39259e-25 1.76038e-24 0 0 3.2811e-25 -1.44967e-25 2.10456e-25 2.5734e-24
          2.40932e-25 7.91117e-26 1.25701e-27 -8.21022e-24 8.12349e-24 1.05194e-24 -1.12219e-25 -1.64384e-24 2.33077e-24 -4.45661e-24 5.06918e-24 -3.55074e-25
          -3.83474e-27 2.91618e-25 3.9802e-24 -6.49879e-25 0 -1.79954e-24 6.12773e-25 -1.02185e-24 1.48036e-24 -5.24533e-26 1.60945e-24 -1.41845e-26
          -3.01535e-24 8.57612e-24 2.75495e-26 -1.07063e-25 -5.58924e-25 1.81422e-24 8.22791e-25 -9.13725e-26 4.56862e-26 -2.06941e-24 1.10194e-24 2.27774e-25
          -3.54663e-26 -1.14492e-24 -1.57675e-23 2.51779e-26 7.44052e-25 -2.07982e-24 -5.30238e-26 4.77804e-25 1.30291e-24 -4.13167e-25 5.50694e-25 -3.07272e-26
          2.32684e-24 3.92091e-24 0 -4.71478e-26 3.8851e-25 2.00353e-24 4.72102e-26 -1.05202e-24 -2.70229e-24 8.49475e-27 -1.33443e-24 -5.89285e-25
          9.74015e-25 -4.87884e-25 -3.13519e-28 2.96692e-25 -3.19232e-27 5.11547e-25 -1.00569e-25 6.04867e-27 1.32639e-23 -3.42977e-26 -3.79061e-24 5.0265e-24
          -1.175e-24 1.31562e-24 1.66689e-24 -3.32715e-24 4.78483e-28 -1.80494e-24 -2.61573e-24 -4.36645e-24 2.45518e-27 1.85054e-25 4.43382e-25 -2.27651e-27
          -2.95209e-26 -6.53927e-24 1.7184e-24 0 0 2.20781e-25 2.8548e-24 -3.89912e-25 3.36243e-24 0 9.76689e-25 0
          -2.5165e-25 3.93512e-25 -1.39503e-27 6.30833e-26 -5.85172e-24 1.61599e-27 1.01459e-27 8.8411e-28 3.07529e-24 6.9519e-29 -9.08385e-25 -1.55695e-24
          -3.10891e-28 6.83893e-25 6.46339e-28 -4.14157e-26 1.30906e-24 -7.48386e-24 0 -7.71546e-24 0 -4.37002e-28 2.27012e-24 -2.80618e-24
          -1.25757e-24 1.22966e-28 9.71565e-25 0 2.69999e-24 0 2.92132e-25 1.2686e-24 3.65425e-24 8.23531e-26 -4.73756e-24 -4.06691e-24
          -1.56454e-24 1.32503e-25 3.71263e-26 1.08639e-28 -1.29104e-24 -7.67936e-25 3.178e-24 -1.63835e-24 1.77336e-24 -1.43886e-24 6.07818e-25 6.31059e-24
          -5.2829e-26 -3.26558e-24 7.51538e-24 4.0286e-24 -2.42474e-24 5.21654e-26 6.69605e-25 -2.57052e-28 7.54498e-25 3.54826e-28 -2.89217e-24 6.28088e-25
          -1.3131e-24 2.28296e-25 -1.95122e-24 -8.97317e-26 -4.22003e-24 -3.80057e-24 6.92106e-24 1.97066e-25 2.59066e-24 7.82252e-25 -2.60705e-25 -6.2428e-25
          -7.65158e-25 4.59284e-25 0 -2.9496e-26 -9.00908e-25 3.26456e-24 -5.73803e-24 5.74076e-24 -4.17141e-24 8.8908e-28 0 0
          1.73781e-25 -4.50876e-28 9.99897e-25 -8.67557e-25 -9.1381e-25 8.41495e-25 -1.41328e-24 -5.8618e-25 -9.58569e-25 1.56987e-26 3.98394e-25 -2.72805e-24
          9.82463e-24 -1.85762e-25 -4.71052e-24 3.3856e-25 6.81499e-25 -1.81638e-29 -6.05456e-25 -3.54388e-28 -4.39882e-28 8.46027e-26 -2.07697e-24 3.66428e-25
          -9.24835e-26 7.44855e-24 -3.09221e-24 0 -1.98794e-25 -6.20972e-25 4.80123e-24 -5.60156e-25 0 -3.41321e-25 -3.93834e-28 -2.7806e-25
          4.71019e-25 -9.3384e-25 -1.57506e-24 -2.56123e-25 -1.98105e-24 7.71746e-25 -2.13777e-23 0 2.13673e-23 -1.56473e-23 1.29095e-23 3.24855e-25
        </DataArray>
        <DataArray type="Float32" Name="velocity[2]" NumberOfComponents="1" format="ascii">
          -2.39228e-10 8.87384e-09 -6.13941e-09 -8.76001e-09 -3.93021e-09 -4.11967e-09 -4.12612e-09 -3.5332e-09 -3.6118e-09 -3.48665e-09 -3.08845e-09 -2.95429e-09
          -2.47554e-09 -1.87662e-09 -1.25165e-09 -1.38536e-09 3.28658e-08 -5.19871e-09 -1.72309e-08 -2.32694e-09 -2.57866e-09 -3.05651e-09 -3.49971e-09 -4.42786e-09
          -4.3907e-09 -3.41467e-09 -4.50944e-09 -2.97609e-09 -1.49264e-09 -1.67465e-09 -4.97856e-09 5.44239e-08 -1.76106e-09 -1.95497e-08 -4.56615e-09 -4.00438e-09
          -4.6991e-09 -5.47123e-09 -6.91017e-09 -5.85551e-09 -3.94433e-09 -7.89832e-09 -3.43061e-09 -1.95622e-09 -2.2324e-09 -7.6424e-09 5.86111e-08 -3.96716e-10
          -9.35237e-09 -6.43869e-09 -7.71874e-09 -8.88525e-09 -7.75791e-09 -6.85997e-09 -7.03783e-09 -3.69624e-09 -1.24246e-08 -2.43734e-09 -2.16358e-09 -2.885e-09
          -8.89589e-09 1.91994e-08 1.09558e-09 -1.41513e-08 -5.63545e-09 -1.15685e-08 -1.38314e-08 -1.39172e-08 -7.32605e-09 -9.27731e-09 -5.71357e-09 -2.23323e-08
          -1.03028e-09 -1.41048e-09 -3.1442e-09 -2.04398e-08 -2.55219e-08 -1.85905e-09 -2.11457e-08 -8.03888e-09 -2.20556e-08 -1.92731e-08 -2.29106e-08 -6.57455e-09
          -4.41102e-09 7.1704e-10 -2.06249e-08 -5.9741e-10 -1.07834e-09 -3.36133e-09 -2.33166e-08 -2.58096e-08 -1.49266e-09 -8.16543e-09 -6.11969e-09 -3.10613e-08
          -1.09778e-08 -2.46643e-08 -1.10337e-09 -3.60351e-10 3.65502e-10 -1.65833e-08 -4.7584e-10 -9.17925e-10 -3.48039e-09 -2.1281e-08 -2.34852e-08 -1.64795e-09
          -2.38413e-09 -3.32832e-09 -3.57311e-08 -6.61661e-09 -3.85278e-08 -1.02951e-09 -5.77947e-10 -1.8795e-09 -1.69562e-08 -6.52991e-10 -1.2032e-09 -3.88961e-09
          -1.75112e-08 -2.00142e-08 -1.82488e-09 -1.17871e-09 -2.34406e-09 -3.70032e-08 -3.12979e-09 -4.9226e-08 -5.55401e-10 -3.32491e-10 -2.94297e-09 -1.52091e-08
          -6.55265e-10 -1.11046e-09 -4.23088e-09 -1.56065e-08 -2.14409e-08 -5.56596e-09 -1.039e-09 -1.85331e-09 -3.71352e-08 -2.11829e-09 -5.97481e-08 -4.12744e-10
          -2.42949e-10 -6.20269e-09 -9.30068e-09 -1.01304e-09 -1.0558e-09 -4.57482e-09 -7.94697e-09 -1.39522e-08 -9.46989e-09 -1.1904e-09 -1.77313e-09 -3.6416e-08
          -1.21641e-09 -6.99975e-08 -3.56605e-10 -9.52627e-11 -8.61856e-09 -7.55023e-09 -1.4196e-09 -1.00119e-09 -4.57521e-09 -5.46418e-09 -1.01018e-08 -9.75565e-09
          -1.18722e-09 -2.09855e-09 -3.63737e-08 -8.96793e-10 -7.60264e-08 -2.26055e-09 -2.18471e-10 -5.68091e-09 -6.57527e-09 -2.55484e-09 -1.23142e-09 -4.63084e-09
          -4.87755e-09 -9.41695e-09 -6.93846e-09 -1.01901e-09 -2.63201e-09 -3.4572e-08 -1.9551e-09 -7.69741e-08 -7.5915e-09 -8.22792e-10 -4.3559e-09 -4.33088e-09
          -5.24579e-09 -2.19061e-09 -4.48922e-09 -5.48768e-09 -1.11962e-08 -4.09857e-09 -9.20079e-10 -3.28092e-09 -3.09852e-08 -9.03015e-10 -7.09046e-08 -1.29105e-08
          -2.18092e-09 -2.8961e-09 -1.78031e-09 -5.69177e-09 -3.68147e-09 -3.90455e-09 -6.61367e-09 -1.06159e-08 -2.38232e-09 -1.04987e-09 -4.29337e-09 -3.0152e-08
          -5.82912e-10 -6.31579e-08 -1.52076e-08 -3.95592e-09 -2.56295e-09 -1.33731e-09 -5.09527e-09 -5.44574e-09 -3.28259e-09 -8.39022e-09 -8.73205e-09 -1.40905e-09
          -1.09099e-09 -5.19218e-09 -2.96555e-08 -7.80139e-10 -5.41763e-08 -1.7074e-08 -6.66301e-09 -3.41563e-09 -3.12052e-09 -6.9871e-09 -8.60552e-09 -2.55842e-09
          -9.05215e-09 -7.13245e-09 -9.83587e-10 -1.13776e-09 -6.72661e-09 -2.59126e-08 -1.7604e-09 -4.35804e-08 -1.73168e-08 -9.22041e-09 -2.46344e-09 -2.74706e-09
          -6.63939e-09 -1.33195e-08 -1.913e-09 -8.89423e-09 -5.8299e-09 -8.52187e-10 -1.2121e-09 -1.0174e-08 -1.91169e-08 -2.56591e-09 -3.45453e-08 -1.88817e-08
          -1.26245e-08 -2.23344e-09 -2.38004e-09 -4.49084e-09 -1.66614e-08 -1.53665e-09 -8.15597e-09 -4.66609e-09 -1.14896e-09 -1.09305e-09 -1.28663e-08 -1.27922e-08
          -2.65718e-09 -2.53057e-08 -1.93324e-08 -1.93312e-08 -2.30096e-09 -2.52443e-09 -5.26077e-09 -1.9254e-08 -1.69831e-09 -6.78824e-09 -3.21596e-09 -9.44695e-10
          -9.03068e-10 -1.37825e-08 -7.93622e-09 -2.51742e-09 -1.8977e-08 -1.43752e-08 -3.2168e-08 -2.32694e-09 -2.35801e-09 -6.43524e-09 -2.0444e-08 -2.1391e-09
          -5.31378e-09 -2.56286e-09 -1.09725e-09 -8.83165e-10 -1.32438e-08 -5.16547e-09 -2.45272e-09 -1.52529e-08 -7.16052e-09 -4.20735e-08 -2.55727e-09 -2.92587e-09
          -7.8863e-09 -2.16317e-08 -2.38531e-09 -3.50519e-09 -1.73718e-09 -1.21981e-09 -1.00531e-09 -1.04601e-08 -4.55421e-09 -2.72311e-09 -1.45795e-08 -4.54335e-09
          -4.41669e-08 -3.25114e-09 -4.43786e-09 -8.83959e-09 -2.31852e-08 -3.38537e-09 -1.72118e-09 -9.33444e-10 -8.6052e-10 -9.24949e-10 -6.06758e-09 -4.17627e-09
          -2.9334e-09 -1.56433e-08 -4.39718e-09 -3.95511e-08 -5.38545e-09 -7.66274e-09 -1.22695e-08 -2.45925e-08 -4.27759e-09 -5.33278e-10 -3.96174e-10 -2.9416e-10
          -2.9498e-10 -1.6848e-09 -1.79771e-09 -1.46873e-09 -9.05869e-09 -4.54712e-09 -2.30071e-08 -9.85862e-09 -8.62957e-09 -9.82848e-09 -1.36868e-08 -2.29675e-09
        </DataArray>
        <DataArray type="Float32" Name="z[0]" NumberOfComponents="1" format="ascii">
          0.150578 0.150579 0.15058 0.150582 0.150582 0.150583 0.150584 0.150585 0.150585 0.150586 0.150587 0.150588
          0.150589 0.150591 0.150596 0.150581 0.150582 0.150583 0.150585 0.150586 0.150587 0.150587 0.150588 0.150588
          0.150589 0.15059 0.150591 0.150593 0.150595 0.150599 0.150584 0.150585 0.150587 0.150588 0.150589 0.15059
          0.152905 0.157874 0.150592 0.150593 0.150593 0.150595 0.150596 0.150598 0.150602 0.150588 0.150589 0.15059
          0.150591 0.172033 0.338277 0.39046 0.380815 0.150595 0.150596 0.150597 0.150598 0.150599 0.150601 0.150605
          0.150591 0.150592 0.264185 0.444403 0.456298 0.458421 0.437111 0.402154 0.150598 0.150599 0.1506 0.150601
          0.150602 0.150604 0.150609 0.150594 0.150597 0.253691 0.472533 0.48433 0.483954 0.461773 0.444909 0.164259
          0.150602 0.150603 0.150604 0.150605 0.150607 0.150612 0.150597 0.150605 0.260365 0.483618 0.494141 0.495948