<?xml version="1.0"?>
<VTKFile type="UnstructuredGrid" version="0.1" byte_order="LittleEndian">
  <UnstructuredGrid>
    <Piece NumberOfCells="360" NumberOfPoints="800">
      <CellData Scalars="pressure[0]">
        <DataArray type="Float32" Name="pressure[0]" NumberOfComponents="1" format="ascii">
          2.11447e+07 2.11594e+07 2.22624e+07 2.31838e+07 2.35578e+07 2.39824e+07 2.41189e+07 2.41684e+07 2.42278e+07 2.42903e+07 2.44564e+07 2.47353e+07
          2.49484e+07 2.55398e+07 2.62462e+07 2.11891e+07 2.12039e+07 2.24224e+07 2.33895e+07 2.37589e+07 2.41812e+07 2.42794e+07 2.43172e+07 2.43772e+07
          2.44472e+07 2.4682e+07 2.49705e+07 2.51354e+07 2.57372e+07 2.64108e+07 2.1234e+07 2.12485e+07 2.24818e+07 2.35605e+07 2.38918e+07 2.42879e+07
          2.44086e+07 2.44659e+07 2.4544e+07 2.46445e+07 2.49629e+07 2.52853e+07 2.54444e+07 2.59891e+07 2.66164e+07 2.12797e+07 2.13001e+07 2.23164e+07
          2.37093e+07 2.39877e+07 2.44261e+07 2.46433e+07 2.47159e+07 2.48115e+07 2.49146e+07 2.53303e+07 2.5694e+07 2.58419e+07 2.62818e+07 2.68686e+07
          2.13485e+07 2.1379e+07 1.9773e+07 2.3846e+07 2.44499e+07 2.50575e+07 2.51405e+07 2.51816e+07 2.52497e+07 2.55537e+07 2.58305e+07 2.61381e+07
          2.62446e+07 2.66041e+07 2.71151e+07 2.15313e+07 2.1575e+07 2.18777e+07 2.45954e+07 2.51161e+07 2.55947e+07 2.56955e+07 2.58614e+07 2.61774e+07
          2.6949e+07 2.68713e+07 2.65546e+07 2.6619e+07 2.6928e+07 2.73882e+07 2.17321e+07 2.17803e+07 2.25959e+07 2.53182e+07 2.57473e+07 2.61064e+07
          2.61666e+07 2.62432e+07 2.63006e+07 2.65842e+07 2.67574e+07 2.67978e+07 2.68842e+07 2.72652e+07 2.77596e+07 2.20849e+07 2.21482e+07 2.30752e+07
          2.57973e+07 2.62775e+07 2.65392e+07 2.65905e+07 2.66381e+07 2.66871e+07 2.68264e+07 2.69486e+07 2.70069e+07 2.71614e+07 2.76079e+07 2.82642e+07
          2.2421e+07 2.24631e+07 2.35045e+07 2.60921e+07 2.67697e+07 2.69813e+07 2.70589e+07 2.71345e+07 2.70813e+07 2.71225e+07 2.71764e+07 2.72099e+07
          2.73864e+07 2.7984e+07 2.8766e+07 2.29783e+07 2.31488e+07 2.39895e+07 2.58617e+07 2.71893e+07 2.73658e+07 2.75459e+07 2.7717e+07 2.75242e+07
          2.7459e+07 2.7457e+07 2.74695e+07 2.77006e+07 2.8359e+07 2.9076e+07 2.45207e+07 2.47281e+07 2.50971e+07 2.63073e+07 2.75225e+07 2.76542e+07
          2.79498e+07 2.82135e+07 2.8001e+07 2.78695e+07 2.7826e+07 2.79543e+07 2.81034e+07 2.86747e+07 2.96636e+07 2.59056e+07 2.60033e+07 2.60938e+07
          2.66587e+07 2.78436e+07 2.79351e+07 2.83643e+07 2.87264e+07 2.88129e+07 2.86944e+07 2.86039e+07 2.86682e+07 2.90569e+07 2.98342e+07 3.03159e+07
          2.6874e+07 2.68978e+07 2.67647e+07 2.74313e+07 2.83054e+07 2.83914e+07 2.88542e+07 2.92662e+07 2.93603e+07 2.93967e+07 2.94124e+07 2.96038e+07
          3.00363e+07 3.07677e+07 3.0888e+07 2.76707e+07 2.77006e+07 2.74491e+07 2.83603e+07 2.90333e+07 2.91075e+07 2.94907e+07 2.97985e+07 2.98646e+07
          2.99486e+07 3.00329e+07 3.04447e+07 3.09843e+07 3.14114e+07 3.12642e+07 2.83276e+07 2.83313e+07 2.8248e+07 2.9319e+07 2.97143e+07 2.97717e+07
          3.00304e+07 3.0217e+07 3.02662e+07 3.03412e+07 3.04833e+07 3.11193e+07 3.16186e+07 3.17851e+07 3.17045e+07 2.89188e+07 2.89505e+07 2.91156e+07
          2.99505e+07 3.01405e+07 3.01926e+07 3.03765e+07 3.04998e+07 3.05469e+07 3.06153e+07 3.08697e+07 3.14818e+07 3.19399e+07 3.22118e+07 3.21214e+07
          2.95218e+07 2.95745e+07 2.99421e+07 3.03893e+07 3.04932e+07 3.05325e+07 3.06329e+07 3.07206e+07 3.07669e+07 3.08269e+07 3.11579e+07 3.18829e+07
          3.2374e+07 3.26386e+07 3.25058e+07 3.00135e+07 3.00723e+07 3.03956e+07 3.06421e+07 3.07522e+07 3.07966e+07 3.0876e+07 3.09424e+07 3.09904e+07
          3.10459e+07 3.145e+07 3.22143e+07 3.27153e+07 3.29355e+07 3.28891e+07 3.03019e+07 3.03661e+07 3.05605e+07 3.08369e+07 3.09819e+07 3.10292e+07
          3.10997e+07 3.11588e+07 3.12036e+07 3.12573e+07 3.17002e+07 3.25429e+07 3.30553e+07 3.32251e+07 3.34064e+07 3.05377e+07 3.05954e+07 3.07704e+07
          3.10449e+07 3.11877e+07 3.12354e+07 3.13042e+07 3.13605e+07 3.14055e+07 3.14644e+07 3.19029e+07 3.28297e+07 3.33912e+07 3.35287e+07 3.39003e+07
          3.074e+07 3.08042e+07 3.09453e+07 3.11996e+07 3.1375e+07 3.14267e+07 3.15002e+07 3.15595e+07 3.16177e+07 3.16901e+07 3.23061e+07 3.32959e+07
          3.37053e+07 3.38494e+07 3.42933e+07 3.09348e+07 3.10011e+07 3.11278e+07 3.13762e+07 3.15547e+07 3.16107e+07 3.1695e+07 3.17625e+07 3.1836e+07
          3.19183e+07 3.27461e+07 3.37733e+07 3.40295e+07 3.42007e+07 3.46772e+07 3.11147e+07 3.11761e+07 3.13264e+07 3.15873e+07 3.17344e+07 3.17976e+07
          3.1896e+07 3.19737e+07 3.20666e+07 3.21674e+07 3.31241e+07 3.41731e+07 3.43939e+07 3.45832e+07 3.49625e+07 3.12815e+07 3.13402e+07 3.14734e+07
          3.17346e+07 3.19205e+07 3.19852e+07 3.20953e+07 3.21851e+07 3.22971e+07 3.24301e+07 3.35382e+07 3.45253e+07 3.47691e+07 3.49422e+07 3.52188e+07
        </DataArray>
        <DataArray type="Float32" Name="pressure[1]" NumberOfComponents="1" format="ascii">
          2.11447e+07 2.11594e+07 2.22624e+07 2.31838e+07 2.35578e+07 2.39824e+07 2.41189e+07 2.41684e+07 2.42278e+07 2.42903e+07 2.44564e+07 2.47353e+07
          2.49484e+07 2.55398e+07 2.62462e+07 2.11891e+07 2.12039e+07 2.24224e+07 2.33895e+07 2.37589e+07 2.41812e+07 2.42794e+07 2.43172e+07 2.43772e+07
          2.44472e+07 2.4682e+07 2.49705e+07 2.51354e+07 2.57372e+07 2.64108e+07 2.1234e+07 2.12485e+07 2.24818e+07 2.35605e+07 2.38918e+07 2.42879e+07
          2.44086e+07 2.44659e+07 2.4544e+07 2.46445e+07 2.49629e+07 2.52853e+07 2.54444e+07 2.59891e+07 2.66164e+07 2.12797e+07 2.13001e+07 2.23164e+07
          2.37093e+07 2.39877e+07 2.44261e+07 2.46433e+07 2.47159e+07 2.48115e+07 2.49146e+07 2.53303e+07 2.5694e+07 2.58419e+07 2.62818e+07 2.68686e+07
          2.13485e+07 2.1379e+07 1.9773e+07 2.3846e+07 2.44499e+07 2.50575e+07 2.51405e+07 2.51816e+07 2.52497e+07 2.55537e+07 2.58305e+07 2.61381e+07
          2.62446e+07 2.66041e+07 2.71151e+07 2.15313e+07 2.1575e+07 2.18777e+07 2.45954e+07 2.51161e+07 2.55947e+07 2.56955e+07 2.58614e+07 2.61774e+07
          2.6949e+07 2.68713e+07 2.65546e+07 2.6619e+07 2.6928e+07 2.73882e+07 2.17321e+07 2.17803e+07 2.25959e+07 2.53182e+07 2.57473e+07 2.61064e+07
          2.61666e+07 2.62432e+07 2.63006e+07 2.65842e+07 2.67574e+07 2.67978e+07 2.68842e+07 2.72652e+07 2.77596e+07 2.20849e+07 2.21482e+07 2.30752e+07
          2.57973e+07 2.62775e+07 2.65392e+07 2.65905e+07 2.66381e+07 2.66871e+07 2.68264e+07 2.69486e+07 2.70069e+07 2.71614e+07 2.76079e+07 2.82642e+07
          2.2421e+07 2.24631e+07 2.35045e+07 2.60921e+07 2.67697e+07 2.69813e+07 2.70589e+07 2.71345e+07 2.70813e+07 2.71225e+07 2.71764e+07 2.72099e+07
          2.73864e+07 2.7984e+07 2.8766e+07 2.29783e+07 2.31488e+07 2.39895e+07 2.58617e+07 2.71893e+07 2.73658e+07 2.75459e+07 2.7717e+07 2.75242e+07
          2.7459e+07 2.7457e+07 2.74695e+07 2.77006e+07 2.8359e+07 2.9076e+07 2.45207e+07 2.47281e+07 2.50971e+07 2.63073e+07 2.75225e+07 2.76542e+07
          2.79498e+07 2.82135e+07 2.8001e+07 2.78695e+07 2.7826e+07 2.79543e+07 2.81034e+07 2.86747e+07 2.96636e+07 2.59056e+07 2.60033e+07 2.60938e+07
          2.66587e+07 2.78436e+07 2.79351e+07 2.83643e+07 2.87264e+07 2.88129e+07 2.86944e+07 2.86039e+07 2.86682e+07 2.90569e+07 2.98342e+07 3.03159e+07
          2.6874e+07 2.68978e+07 2.67647e+07 2.74313e+07 2.83054e+07 2.83914e+07 2.88542e+07 2.92662e+07 2.93603e+07 2.93967e+07 2.94124e+07 2.96038e+07
          3.00363e+07 3.07677e+07 3.0888e+07 2.76707e+07 2.77006e+07 2.74491e+07 2.83603e+07 2.90333e+07 2.91075e+07 2.94907e+07 2.97985e+07 2.98646e+07
          2.99486e+07 3.00329e+07 3.04447e+07 3.09843e+07 3.14114e+07 3.12642e+07 2.83276e+07 2.83313e+07 2.8248e+07 2.9319e+07 2.97143e+07 2.97717e+07
          3.00304e+07 3.0217e+07 3.02662e+07 3.03412e+07 3.04833e+07 3.11193e+07 3.16186e+07 3.17851e+07 3.17045e+07 2.89188e+07 2.89505e+07 2.91156e+07
          2.99505e+07 3.01405e+07 3.01926e+07 3.03765e+07 3.04998e+07 3.05469e+07 3.06153e+07 3.08697e+07 3.14818e+07 3.19399e+07 3.22118e+07 3.21214e+07
          2.95218e+07 2.95745e+07 2.99421e+07 3.03893e+07 3.04932e+07 3.05325e+07 3.06329e+07 3.07206e+07 3.07669e+07 3.08269e+07 3.11579e+07 3.18829e+07
          3.2374e+07 3.26386e+07 3.25058e+07 3.00135e+07 3.00723e+07 3.03956e+07 3.06421e+07 3.07522e+07 3.07966e+07 3.0876e+07 3.09424e+07 3.09904e+07
          3.10459e+07 3.145e+07 3.22143e+07 3.27153e+07 3.29355e+07 3.28891e+07 3.03019e+07 3.03661e+07 3.05605e+07 3.08369e+07 3.09819e+07 3.10292e+07
          3.10997e+07 3.11588e+07 3.12036e+07 3.12573e+07 3.17002e+07 3.25429e+07 3.30553e+07 3.32251e+07 3.34064e+07 3.05377e+07 3.05954e+07 3.07704e+07
          3.10449e+07 3.11877e+07 3.12354e+07 3.13042e+07 3.13605e+07 3.14055e+07 3.14644e+07 3.19029e+07 3.28297e+07 3.33912e+07 3.35287e+07 3.39003e+07
          3.074e+07 3.08042e+07 3.09453e+07 3.11996e+07 3.1375e+07 3.14267e+07 3.15002e+07 3.15595e+07 3.16177e+07 3.16901e+07 3.23061e+07 3.32959e+07
          3.37053e+07 3.38494e+07 3.42933e+07 3.09348e+07 3.10011e+07 3.11278e+07 3.13762e+07 3.15547e+07 3.16107e+07 3.1695e+07 3.17625e+07 3.1836e+07
          3.19183e+07 3.27461e+07 3.37733e+07 3.40295e+07 3.42007e+07 3.46772e+07 3.11147e+07 3.11761e+07 3.13264e+07 3.15873e+07 3.17344e+07 3.17976e+07
          3.1896e+07 3.19737e+07 3.20666e+07 3.21674e+07 3.31241e+07 3.41731e+07 3.43939e+07 3.45832e+07 3.49625e+07 3.12815e+07 3.13402e+07 3.14734e+07
          3.17346e+07 3.19205e+07 3.19852e+07 3.20953e+07 3.21851e+07 3.22971e+07 3.24301e+07 3.35382e+07 3.45253e+07 3.47691e+07 3.49422e+07 3.52188e+07
        </DataArray>
        <DataArray type="Float32" Name="pressure[2]" NumberOfComponents="1" format="ascii">
          2.11447e+07 2.11594e+07 2.22624e+07 2.31838e+07 2.35578e+07 2.39824e+07 2.41189e+07 2.41684e+07 2.42278e+07 2.42903e+07 2.44564e+07 2.47353e+07
          2.49484e+07 2.55398e+07 2.62462e+07 2.11891e+07 2.12039e+07 2.24224e+07 2.33895e+07 2.37589e+07 2.41812e+07 2.42794e+07 2.43172e+07 2.43772e+07
          2.44472e+07 2.4682e+07 2.49705e+07 2.51354e+07 2.57372e+07 2.64108e+07 2.1234e+07 2.12485e+07 2.24818e+07 2.35605e+07 2.38918e+07 2.42879e+07
          2.44086e+07 2.44659e+07 2.4544e+07 2.46445e+07 2.49629e+07 2.52853e+07 2.54444e+07 2.59891e+07 2.66164e+07 2.12797e+07 2.13001e+07 2.23164e+07
          2.37093e+07 2.39877e+07 2.44261e+07 2.46433e+07 2.47159e+07 2.48115e+07 2.49146e+07 2.53303e+07 2.5694e+07 2.58419e+07 2.62818e+07 2.68686e+07
          2.13485e+07 2.1379e+07 1.9773e+07 2.3846e+07 2.44499e+07 2.50575e+07 2.51405e+07 2.51816e+07 2.52497e+07 2.55537e+07 2.58305e+07 2.61381e+07
          2.62446e+07 2.66041e+07 2.71151e+07 2.15313e+07 2.1575e+07 2.18777e+07 2.45954e+07 2.51161e+07 2.55947e+07 2.56955e+07 2.58614e+07 2.61774e+07
          2.6949e+07 2.68713e+07 2.65546e+07 2.6619e+07 2.6928e+07 2.73882e+07 2.17321e+07 2.17803e+07 2.25959e+07 2.53182e+07 2.57473e+07 2.61064e+07
          2.61666e+07 2.62432e+07 2.63006e+07 2.65842e+07 2.67574e+07 2.67978e+07 2.68842e+07 2.72652e+07 2.77596e+07 2.20849e+07 2.21482e+07 2.30752e+07
          2.57973e+07 2.62775e+07 2.65392e+07 2.65905e+07 2.66381e+07 2.66871e+07 2.68264e+07 2.69486e+07 2.70069e+07 2.71614e+07 2.76079e+07 2.82642e+07
          2.2421e+07 2.24631e+07 2.35045e+07 2.60921e+07 2.67697e+07 2.69813e+07 2.70589e+07 2.71345e+07 2.70813e+07 2.71225e+07 2.71764e+07 2.72099e+07
          2.73864e+07 2.7984e+07 2.8766e+07 2.29783e+07 2.31488e+07 2.39895e+07 2.58617e+07 2.71893e+07 2.73658e+07 2.75459e+07 2.7717e+07 2.75242e+07
          2.7459e+07 2.7457e+07 2.74695e+07 2.77006e+07 2.8359e+07 2.9076e+07 2.45207e+07 2.47281e+07 2.50971e+07 2.63073e+07 2.75225e+07 2.76542e+07
          2.79498e+07 2.82135e+07 2.8001e+07 2.78695e+07 2.7826e+07 2.79543e+07 2.81034e+07 2.86747e+07 2.96636e+07 2.59056e+07 2.60033e+07 2.60938e+07
          2.66587e+07 2.78436e+07 2.79351e+07 2.83643e+07 2.87264e+07 2.88129e+07 2.86944e+07 2.86039e+07 2.86682e+07 2.90569e+07 2.98342e+07 3.03159e+07
          2.6874e+07 2.68978e+07 2.67647e+07 2.74313e+07 2.83054e+07 2.83914e+07 2.88542e+07 2.92662e+07 2.93603e+07 2.93967e+07 2.94124e+07 2.96038e+07
          3.00363e+07 3.07677e+07 3.0888e+07 2.76707e+07 2.77006e+07 2.74491e+07 2.83603e+07 2.90333e+07 2.91075e+07 2.94907e+07 2.97985e+07 2.98646e+07
          2.99486e+07 3.00329e+07 3.04447e+07 3.09843e+07 3.14114e+07 3.12642e+07 2.83276e+07 2.83313e+07 2.8248e+07 2.9319e+07 2.97143e+07 2.97717e+07
          3.00304e+07 3.0217e+07 3.02662e+07 3.03412e+07 3.04833e+07 3.11193e+07 3.16186e+07 3.17851e+07 3.17045e+07 2.89188e+07 2.89505e+07 2.91156e+07
          2.99505e+07 3.01405e+07 3.01926e+07 3.03765e+07 3.04998e+07 3.05469e+07 3.06153e+07 3.08697e+07 3.14818e+07 3.19399e+07 3.22118e+07 3.21214e+07
          2.95218e+07 2.95745e+07 2.99421e+07 3.03893e+07 3.04932e+07 3.05325e+07 3.06329e+07 3.07206e+07 3.07669e+07 3.08269e+07 3.11579e+07 3.18829e+07
          3.2374e+07 3.26386e+07 3.25058e+07 3.00135e+07 3.00723e+07 3.03956e+07 3.06421e+07 3.07522e+07 3.07966e+07 3.0876e+07 3.09424e+07 3.09904e+07
          3.10459e+07 3.145e+07 3.22143e+07 3.27153e+07 3.29355e+07 3.28891e+07 3.03019e+07 3.03661e+07 3.05605e+07 3.08369e+07 3.09819e+07 3.10292e+07
          3.10997e+07 3.11588e+07 3.12036e+07 3.12573e+07 3.17002e+07 3.25429e+07 3.30553e+07 3.32251e+07 3.34064e+07 3.05377e+07 3.05954e+07 3.07704e+07
          3.10449e+07 3.11877e+07 3.12354e+07 3.13042e+07 3.13605e+07 3.14055e+07 3.14644e+07 3.19029e+07 3.28297e+07 3.33912e+07 3.35287e+07 3.39003e+07
          3.074e+07 3.08042e+07 3.09453e+07 3.11996e+07 3.1375e+07 3.14267e+07 3.15002e+07 3.15595e+07 3.16177e+07 3.16901e+07 3.23061e+07 3.32959e+07
          3.37053e+07 3.38494e+07 3.42933e+07 3.09348e+07 3.10011e+07 3.11278e+07 3.13762e+07 3.15547e+07 3.16107e+07 3.1695e+07 3.17625e+07 3.1836e+07
          3.19183e+07 3.27461e+07 3.37733e+07 3.40295e+07 3.42007e+07 3.46772e+07 3.11147e+07 3.11761e+07 3.13264e+07 3.15873e+07 3.17344e+07 3.17976e+07
          3.1896e+07 3.19737e+07 3.20666e+07 3.21674e+07 3.31241e+07 3.41731e+07 3.43939e+07 3.45832e+07 3.49625e+07 3.12815e+07 3.13402e+07 3.14734e+07
          3.17346e+07 3.19205e+07 3.19852e+07 3.20953e+07 3.21851e+07 3.22971e+07 3.24301e+07 3.35382e+07 3.45253e+07 3.47691e+07 3.49422e+07 3.52188e+07
        </DataArray>
        <DataArray type="Float32" Name="velocity[0]" NumberOfComponents="1" format="ascii">
          -1.91049e-09 6.82033e-08 -2.08708e-10 -2.13437e-08 -7.51238e-10 -2.70036e-09 -4.03975e-09 -1.28403e-09 -2.66856e-09 -3.22472e-09 -2.28062e-09 -3.35382e-09
          -2.50119e-09 -6.18418e-10 -2.4471e-09 -1.06878e-08 2.0101e-07 2.97159e-10 -7.64714e-08 -6.45345e-10 -6.33802e-10 -1.2654e-09 -2.44425e-09 -8.82675e-09
          -1.01177e-08 -4.97477e-09 -1.36383e-08 -8.49779e-09 -1.90244e-09 -6.4913e-09 -3.60451e-08 3.10888e-07 1.70441e-09 -9.41248e-08 1.12189e-09 2.30455e-09
          -2.09404e-09 -8.29292e-09 -1.94073e-08 -1.54101e-08 -6.40672e-09 -3.30595e-08 -1.12709e-08 -3.90168e-09 -9.66738e-09 -3.87995e-08 3.48039e-07 1.00213e-08
          -3.1624e-08 -1.46767e-09 -1.49388e-08 -2.82522e-08 -2.65118e-08 -2.69631e-08 -2.91344e-08 -8.77452e-09 -6.30828e-08 -7.91381e-09 -5.44518e-09 -1.30075e-08
          -7.20445e-08 8.48557e-08 3.51297e-09 -6.61013e-08 -8.94224e-09 -4.73801e-08 -6.7427e-08 -7.52901e-08 -3.07838e-08 -3.87573e-08 -1.96111e-08 -1.20831e-07
          -4.15818e-09 -4.8709e-09 -1.58164e-08 -1.11179e-07 -1.37709e-07 -6.6999e-09 -1.02338e-07 -1.4866e-08 -9.79402e-08 -7.07959e-08 -9.31265e-08 -1.67887e-08
          -1.50832e-08 -7.4782e-09 -1.27101e-07 -2.24923e-09 -3.76329e-09 -1.76108e-08 -1.2897e-07 -1.42352e-07 -2.38382e-09 -3.3529e-08 -1.38567e-08 -1.59559e-07
          -4.58442e-08 -1.24114e-07 -2.4257e-09 2.59004e-09 4.24559e-09 -9.16936e-08 -1.48363e-09 -3.52736e-09 -1.88186e-08 -1.17022e-07 -1.26038e-07 -2.19508e-09
          -5.28042e-09 -8.82843e-09 -1.94764e-07 -2.72439e-08 -2.11205e-07 -4.51806e-09 -1.18586e-09 -8.26829e-09 -9.1604e-08 -1.10933e-09 -3.49935e-09 -2.02211e-08
          -9.39729e-08 -1.05774e-07 -3.2833e-09 1.0645e-11 -5.94095e-09 -2.05329e-07 -1.10229e-08 -2.75102e-07 -3.33859e-09 -1.69579e-09 -1.82753e-08 -8.50872e-08
          -1.05418e-09 -3.05883e-09 -2.21198e-08 -7.7228e-08 -1.07901e-07 -1.96787e-08 2.73145e-10 -4.46822e-09 -2.05855e-07 -3.67916e-09 -3.33991e-07 -3.5886e-09
          -2.7078e-09 -4.13954e-08 -5.60663e-08 -2.41032e-09 -2.53629e-09 -2.40431e-08 -3.76393e-08 -6.68373e-08 -4.35545e-08 -6.14271e-10 -4.19363e-09 -2.02453e-07
          -1.24104e-09 -3.93832e-07 -4.7758e-09 -3.24809e-09 -4.68719e-08 -3.80243e-08 -4.57564e-09 -3.43999e-09 -2.5306e-08 -2.86857e-08 -5.33675e-08 -4.98922e-08
          -7.20511e-10 -6.76e-09 -2.02163e-07 -1.02566e-09 -4.26009e-07 -1.2628e-08 -3.5525e-09 -3.27823e-08 -3.40372e-08 -1.04685e-08 -5.33389e-09 -2.57869e-08
          -2.78459e-08 -5.58521e-08 -3.88989e-08 -1.24342e-09 -1.13038e-08 -1.88993e-07 -1.43684e-09 -4.23866e-07 -3.71316e-08 -4.96955e-09 -2.2914e-08 -1.72594e-08
          -2.14015e-08 -9.7189e-09 -2.57512e-08 -3.16058e-08 -6.5475e-08 -2.30144e-08 -1.95357e-09 -1.60743e-08 -1.71873e-07 -1.44166e-09 -3.92756e-07 -6.56746e-08
          -9.80191e-09 -1.35261e-08 -5.19376e-09 -2.57696e-08 -1.94802e-08 -2.43156e-08 -3.96192e-08 -6.25057e-08 -1.15447e-08 -2.26649e-09 -2.13498e-08 -1.67631e-07
          -1.0078e-09 -3.51425e-07 -7.90947e-08 -1.70782e-08 -9.84e-09 -2.79434e-09 -2.40101e-08 -3.13263e-08 -2.15116e-08 -4.83198e-08 -4.95056e-08 -5.0619e-09
          -2.6869e-09 -2.66736e-08 -1.64367e-07 -1.2218e-09 -2.96904e-07 -8.22459e-08 -2.48191e-08 -6.29656e-09 -3.84759e-09 -2.72265e-08 -4.66117e-08 -1.80211e-08
          -5.08627e-08 -3.87881e-08 -2.70064e-09 -3.4428e-09 -3.74801e-08 -1.43007e-07 -2.36181e-09 -2.34727e-07 -8.25628e-08 -3.88397e-08 -2.73152e-09 -3.8211e-09
          -2.23357e-08 -6.94853e-08 -1.42729e-08 -4.94953e-08 -3.07576e-08 -1.21059e-09 -2.31128e-09 -5.51609e-08 -1.02498e-07 -3.63473e-09 -1.79596e-07 -8.90435e-08
          -5.84567e-08 -1.9569e-09 -2.58928e-09 -1.45342e-08 -9.10065e-08 -1.11242e-08 -4.43713e-08 -2.1801e-08 -8.97347e-10 -9.58528e-10 -6.83872e-08 -6.50248e-08
          -3.82452e-09 -1.28306e-07 -8.90468e-08 -9.19459e-08 -1.13689e-09 -2.13692e-09 -1.90554e-08 -1.04165e-07 -9.73454e-09 -3.67025e-08 -1.46588e-08 -1.11049e-09
          -4.59496e-10 -7.30259e-08 -3.70385e-08 -3.19645e-09 -9.38979e-08 -5.76385e-08 -1.59639e-07 -1.99897e-09 -3.05067e-09 -2.83351e-08 -1.10593e-07 -1.04797e-08
          -2.80115e-08 -9.87855e-09 -1.03645e-09 -1.09589e-10 -6.8024e-08 -1.94194e-08 -2.74656e-09 -7.38834e-08 -2.41396e-08 -2.21706e-07 -3.14237e-09 -5.6276e-09
          -3.44466e-08 -1.15691e-07 -1.20473e-08 -1.76046e-08 -5.03299e-09 -1.66428e-09 -6.35384e-10 -5.03779e-08 -1.32517e-08 -2.69281e-09 -6.98916e-08 -1.31129e-08
          -2.34499e-07 -2.86415e-09 -1.07957e-08 -3.77213e-08 -1.20865e-07 -1.49585e-08 -8.21217e-09 -2.00982e-09 -7.50027e-10 -4.19385e-10 -2.52115e-08 -9.92406e-09
          -2.21542e-09 -7.393e-08 -1.05806e-08 -2.02106e-07 -3.9726e-09 -1.8605e-08 -4.95705e-08 -1.26034e-07 -1.95422e-08 -2.17485e-09 -4.52423e-10 1.68171e-10
          6.4775e-11 -5.97107e-09 -3.79381e-09 -8.12128e-10 -3.77188e-08 -4.93071e-09 -8.73935e-08 -2.62132e-09 -1.12872e-08 -2.9628e-08 -6.48035e-08 -1.09753e-08
        </DataArray>
        <DataArray type="Float32" Name="velocity[1]" NumberOfComponents="1" format="ascii">
          2.96913e-25 1.13004e-23 9.07892e-26 -3.31706e-24 1.16751e-25 0 6.27825e-25 1.77993e-25 -7.37141e-26 5.47188e-24 -3.42608e-24 -2.91296e-26
          2.14481e-24 -9.04768e-25 3.79081e-25 1.06718e-24 9.53456e-24 8.71258e-26 -5.25043e-24 -1.22463e-25 9.28974e-24 1.25241e-24 8.56878e-26 -9.12748e-24
          2.74366e-26 0 -1.45889e-26 -4.35228e-26 -7.47626e-27 2.48207e-25 2.87364e-24 -1.42961e-23 -3.65973e-24 2.50688e-24 4.46995e-26 0
          1.25693e-24 9.30276e-25 -1.10201e-24 0 6.26069e-24 -1.06217e-23 0 9.73476e-25 -2.41344e-25 -5.31402e-24 2.53866e-23 -2.31378e-24
          3.23654e-24 1.55963e-24 9.44847e-24 -1.56919e-23 2.04727e-23 -1.21382e-24 -8.75491e-24 3.47133e-24 -3.73018e-24 2.42879e-24 -1.08755e-24 8.19287e-25
          3.93344e-26 -7.92782e-23 3.53408e-24 4.42251e-24 7.50542e-26 -2.58851e-24 -1.04147e-24 3.07381e-24 7.75663e-24 -6.86552e-24 5.39604e-24 -9.37025e-24
          7.9005e-26 1.34261e-25 -1.31045e-24 -2.82638e-24 1.00998e-23 -2.96887e-25 4.20921e-24 -2.14306e-25 2.90764e-24 0 -2.77021e-23 1.31015e-26
          -9.35631e-24 -2.55101e-23 1.74413e-23 -1.08492e-24 5.30708e-25 1.31506e-24 -5.91398e-25 -1.24328e-23 0 3.71392e-24 -5.65836e-25 -1.24227e-23
          3.55825e-24 -2.55993e-24 6.07138e-25 -1.09636e-26 3.69408e-25 3.25609e-25 -1.86467e-25 2.2918e-26 -1.42648e-24 -4.07176e-24 1.11737e-23 1.12105e-24
          1.31383e-24 -1.23686e-26 1.31543e-23 8.48844e-25 -5.95837e-25 5.57482e-25 1.52408e-25 -1.02911e-24 -6.7707e-24 1.51625e-25 -2.26737e-25 1.64445e-24
          4.96719e-24 -8.55735e-24 -2.79696e-25 -1.66031e-24 -1.38688e-25 1.73094e-24 0 0 3.23156e-25 -1.56692e-25 2.33017e-25 2.45213e-24
          2.60221e-25 8.23632e-26 1.31343e-27 -8.58719e-24 1.21973e-23 1.04078e-24 -9.58796e-26 -1.60739e-24 2.29068e-24 -4.39435e-24 5.01871e-24 -3.60491e-25
          5.40042e-27 2.86759e-25 3.85904e-24 -6.40361e-25 0 -1.79324e-24 1.39342e-24 -1.50088e-24 1.29938e-24 -6.22419e-26 1.42398e-24 -1.58453e-26
          -2.97999e-24 8.52528e-24 2.33658e-26 -1.16606e-25 -5.56827e-25 1.80334e-24 7.84719e-25 -9.13164e-26 4.56582e-26 -2.02346e-24 1.08561e-24 2.62387e-25
          -5.40292e-26 -1.05178e-24 -1.57344e-23 2.50365e-26 7.28953e-25 -2.07018e-24 -5.25321e-26 4.69252e-25 1.28318e-24 -3.92797e-25 5.32564e-25 -2.82492e-26
          2.30298e-24 3.88407e-24 0 -5.04935e-26 3.72436e-25 2.06284e-24 4.75193e-26 -1.06974e-24 -2.68934e-24 9.06988e-27 -1.33209e-24 -5.87335e-25
          9.681e-25 -4.74694e-25 -2.69793e-28 3.03655e-25 -2.22866e-27 5.12422e-25 -1.20713e-25 6.39745e-27 1.31834e-23 -3.38342e-26 -3.77455e-24 5.00026e-24
          -1.16494e-24 1.31177e-24 1.65936e-24 -3.31201e-24 4.58568e-28 -1.79491e-24 -2.59971e-24 -4.34678e-24 1.83826e-27 1.8174e-25 4.45e-25 -2.43814e-27
          -2.93097e-26 -6.50051e-24 1.70718e-24 0 0 2.19837e-25 2.84058e-24 -3.88047e-25 3.34335e-24 0 9.88285e-25 0
          -2.47077e-25 3.84821e-25 -1.41317e-27 6.2567e-26 -5.81543e-24 1.66802e-27 1.02885e-27 8.95284e-28 3.05217e-24 8.11918e-30 -9.02139e-25 -1.54805e-24
          -4.32867e-29 6.77587e-25 4.23774e-28 -4.19047e-26 1.29797e-24 -7.43024e-24 0 -7.65307e-24 0 -4.13644e-28 2.25294e-24 -2.7855e-24
          -1.24991e-24 1.49566e-28 9.65683e-25 0 2.67539e-24 0 2.88166e-25 1.25378e-24 3.62983e-24 8.18805e-26 -4.72154e-24 -4.04988e-24
          -1.55328e-24 1.31672e-25 3.69637e-26 7.88452e-29 -1.28233e-24 -7.63148e-25 3.14838e-24 -1.62226e-24 1.75575e-24 -1.42397e-24 6.05457e-25 6.26066e-24
          -5.25027e-26 -3.2497e-24 7.47296e-24 3.99884e-24 -2.40665e-24 5.18405e-26 6.65001e-25 -2.79421e-28 7.49714e-25 1.97906e-28 -2.86446e-24 6.21921e-25
          -1.2999e-24 2.31656e-25 -1.93581e-24 -8.89032e-26 -4.19357e-24 -3.77811e-24 6.87078e-24 1.9564e-25 2.57179e-24 7.77117e-25 -2.58835e-25 -6.20466e-25
          -7.57926e-25 4.54947e-25 0 -2.93275e-26 -8.93474e-25 3.23559e-24 -5.68727e-24 5.68979e-24 -4.13918e-24 9.6195e-28 0 0
          1.7279e-25 -4.66578e-28 9.93326e-25 -8.59423e-25 -9.04608e-25 8.3339e-25 -1.39928e-24 -5.85622e-25 -9.51955e-25 1.57056e-26 3.93135e-25 -2.70647e-24
          9.75133e-24 -1.8449e-25 -4.67685e-24 3.35982e-25 6.76855e-25 -4.95926e-29 -6.00026e-25 -2.01631e-28 -2.85707e-28 8.40797e-26 -2.06286e-24 3.63804e-25
          -9.18736e-26 7.38982e-24 -3.06842e-24 0 -1.97378e-25 -6.16671e-25 4.76642e-24 -5.55771e-25 0 -3.38219e-25 -2.41386e-28 -2.75258e-25
          4.66595e-25 -9.27363e-25 -1.56241e-24 -2.54099e-25 -1.96923e-24 7.66291e-25 -2.12239e-23 0 2.12155e-23 -1.55381e-23 1.28209e-23 3.22602e-25
        </DataArray>
        <DataArray type="Float32" Name="velocity[2]" NumberOfComponents="1" format="ascii">
          -2.70734e-10 8.9741e-09 -6.20521e-09 -8.75858e-09 -3.99184e-09 -4.18836e-09 -4.21054e-09 -3.59636e-09 -3.6783e-09 -3.51538e-09 -3.08764e-09 -2.95497e-09
          -2.47369e-09 -1.87323e-09 -1.24984e-09 -1.45597e-09 3.32345e-08 -5.23868e-09 -1.72419e-08 -2.37361e-09 -2.66112e-09 -3.2054e-09 -3.6122e-09 -4.5674e-09
          -4.47544e-09 -3.41619e-09 -4.5132e-09 -2.97094e-09 -1.49068e-09 -1.67078e-09 -5.14431e-09 5.50111e-08 -1.78094e-09 -2.00141e-08 -4.59401e-09 -4.38523e-09
          -4.88819e-09 -5.63041e-09 -7.15404e-09 -5.86751e-09 -3.94585e-09 -7.91878e-09 -3.42642e-09 -1.95292e-09 -2.22667e-09 -8.07081e-09 5.93483e-08 -4.23579e-10
          -9.81776e-09 -5.89906e-09 -7.50057e-09 -8.63307e-09 -7.55864e-09 -6.79612e-09 -7.06696e-09 -3.73979e-09 -1.25616e-08 -2.43676e-09 -2.15791e-09 -2.87637e-09
          -9.45531e-09 1.94306e-08 1.08709e-09 -1.45819e-08 -5.72654e-09 -1.15194e-08 -1.38962e-08 -1.44637e-08 -7.56569e-09 -9.59708e-09 -5.75088e-09 -2.26958e-08
          -1.02647e-09 -1.40475e-09 -3.13388e-09 -1.90485e-08 -2.39034e-08 -1.86338e-09 -2.13176e-08 -8.12417e-09 -2.23966e-08 -2.06837e-08 -2.37859e-08 -6.59326e-09
          -4.40743e-09 9.1371e-10 -2.05324e-08 -5.81655e-10 -1.07013e-09 -3.3493e-09 -2.29953e-08 -2.58951e-08 -1.5073e-09 -8.22379e-09 -6.16661e-09 -3.1165e-08
          -1.10403e-08 -2.38925e-08 -1.00979e-09 -3.26259e-10 5.80033e-10 -1.60744e-08 -4.60836e-10 -9.1119e-10 -3.46794e-09 -2.15273e-08 -2.37436e-08 -1.63882e-09
          -2.40166e-09 -3.35369e-09 -3.60102e-08 -6.67215e-09 -3.84482e-08 -1.01017e-09 -5.69437e-10 -1.81687e-09 -1.64873e-08 -6.3774e-10 -1.19359e-09 -3.87538e-09
          -1.64934e-08 -1.92948e-08 -1.8647e-09 -1.196e-09 -2.36085e-09 -3.73946e-08 -3.12035e-09 -4.91202e-08 -5.46922e-10 -3.30901e-10 -2.90951e-09 -1.48695e-08
          -6.42953e-10 -1.10065e-09 -4.21604e-09 -1.61377e-08 -2.3248e-08 -5.75208e-09 -1.04556e-09 -1.85284e-09 -3.75461e-08 -2.09817e-09 -5.95407e-08 -4.07409e-10
          -2.42366e-10 -6.13658e-09 -9.1406e-09 -9.99903e-10 -1.04193e-09 -4.5596e-09 -7.0663e-09 -1.36271e-08 -9.56077e-09 -1.05208e-09 -1.67339e-09 -3.66436e-08
          -1.20327e-09 -6.97115e-08 -3.52378e-10 -8.8898e-11 -8.50814e-09 -7.49316e-09 -1.3957e-09 -9.75165e-10 -4.56021e-09 -5.20612e-09 -9.88086e-09 -9.60351e-09
          -1.08504e-09 -2.02761e-09 -3.63639e-08 -8.88449e-10 -7.56997e-08 -2.25492e-09 -2.14235e-10 -5.61944e-09 -6.54897e-09 -2.53137e-09 -1.19116e-09 -4.60769e-09
          -4.78928e-09 -9.30715e-09 -6.79565e-09 -9.18094e-10 -2.55311e-09 -3.43876e-08 -1.93557e-09 -7.66023e-08 -7.55614e-09 -8.15742e-10 -4.33669e-09 -4.31902e-09
          -5.22833e-09 -2.16085e-09 -4.46441e-09 -5.44149e-09 -1.10992e-08 -4.02984e-09 -8.9723e-10 -3.2402e-09 -3.07573e-08 -8.94898e-10 -7.05385e-08 -1.2849e-08
          -2.16943e-09 -2.88402e-09 -1.77243e-09 -5.6656e-09 -3.65176e-09 -3.8821e-09 -6.57876e-09 -1.05409e-08 -2.28448e-09 -1.04811e-09 -4.26488e-09 -2.99303e-08
          -5.77821e-10 -6.28298e-08 -1.51354e-08 -3.93678e-09 -2.54892e-09 -1.33056e-09 -5.06995e-09 -5.40992e-09 -3.26352e-09 -8.34363e-09 -8.69418e-09 -1.34294e-09
          -1.0673e-09 -5.14185e-09 -2.94211e-08 -7.73029e-10 -5.38994e-08 -1.69887e-08 -6.62927e-09 -3.39128e-09 -3.09821e-09 -6.94388e-09 -8.55035e-09 -2.54315e-09
          -8.97534e-09 -7.07073e-09 -9.63158e-10 -1.11903e-09 -6.66328e-09 -2.56938e-08 -1.74143e-09 -4.33562e-08 -1.72246e-08 -9.17266e-09 -2.44579e-09 -2.72746e-09
          -6.59552e-09 -1.32338e-08 -1.90132e-09 -8.81237e-09 -5.77667e-09 -8.41992e-10 -1.19789e-09 -1.00859e-08 -1.89561e-08 -2.53945e-09 -3.43517e-08 -1.87733e-08
          -1.25529e-08 -2.21731e-09 -2.36288e-09 -4.46019e-09 -1.65535e-08 -1.52698e-09 -8.07974e-09 -4.62199e-09 -1.13749e-09 -1.08216e-09 -1.27628e-08 -1.26883e-08
          -2.6318e-09 -2.51493e-08 -1.92124e-08 -1.92115e-08 -2.28426e-09 -2.50612e-09 -5.22433e-09 -1.91283e-08 -1.68753e-09 -6.725e-09 -3.18577e-09 -9.35555e-10
          -8.94238e-10 -1.36778e-08 -7.87337e-09 -2.49458e-09 -1.88559e-08 -1.42796e-08 -3.19552e-08 -2.31007e-09 -2.34096e-09 -6.39122e-09 -2.03091e-08 -2.12511e-09
          -5.26459e-09 -2.53881e-09 -1.08676e-09 -8.74562e-10 -1.31475e-08 -5.12561e-09 -2.43211e-09 -1.51546e-08 -7.11038e-09 -4.17862e-08 -2.53875e-09 -2.90482e-09
          -7.83281e-09 -2.14877e-08 -2.36961e-09 -3.47305e-09 -1.721e-09 -1.2082e-09 -9.95564e-10 -1.03851e-08 -4.51973e-09 -2.70146e-09 -1.44805e-08 -4.51036e-09
          -4.38598e-08 -3.22769e-09 -4.40628e-09 -8.77945e-09 -2.30295e-08 -3.36282e-09 -1.70568e-09 -9.2492e-10 -8.52401e-10 -9.16054e-10 -6.0233e-09 -4.14477e-09
          -2.91065e-09 -1.55321e-08 -4.36493e-09 -3.92726e-08 -5.34674e-09 -7.60858e-09 -1.21847e-08 -2.44259e-08 -4.24887e-09 -5.28584e-10 -3.92646e-10 -2.91484e-10
          -2.92205e-10 -1.67211e-09 -1.78412e-09 -1.45741e-09 -8.99298e-09 -4.5138e-09 -2.28435e-08 -9.78784e-09 -8.56826e-09 -9.75972e-09 -1.35933e-08 -2.28128e-09
        </DataArray>
        <DataArray type="Float32" Name="z[0]" NumberOfComponents="1" format="ascii">
          0.150578 0.150579 0.15058 0.150582 0.150582 0.150583 0.150584 0.150585 0.150585 0.150586 0.150587 0.150588
          0.150589 0.150591 0.150596 0.150581 0.150582 0.150583 0.150585 0.150586 0.150587 0.150587 0.150588 0.150588
          0.150589 0.15059 0.150591 0.150593 0.150595 0.150599 0.150584 0.150585 0.150587 0.150588 0.150589 0.15059
          0.153909 0.159645 0.150592 0.150593 0.150593 0.150595 0.150596 0.150598 0.150602 0.150588 0.150589 0.15059
          0.150591 0.174669 0.361189 0.391003 0.381368 0.150595 0.150596 0.150597 0.150598 0.150599 0.150601 0.150605
          0.150591 0.150592 0.27392 0.446695 0.458158 0.459876 0.438708 0.403685 0.150598 0.150599 0.1506 0.150601
          0.150602 0.150604 0.150609 0.150594 0.150597 0.261274 0.474036 0.485561 0.484819 0.463008 0.449443 0.166722