<?xml version="1.0"?>
<VTKFile type="UnstructuredGrid" version="0.1" byte_order="LittleEndian">
  <UnstructuredGrid>
    <Piece NumberOfCells="360" NumberOfPoints="800">
      <CellData Scalars="pressure[0]">
        <DataArray type="Float32" Name="pressure[0]" NumberOfComponents="1" format="ascii">
          2.07985e+07 2.0813e+07 2.12993e+07 2.18441e+07 2.22568e+07 2.27664e+07 2.29311e+07 2.29883e+07 2.30561e+07 2.3128e+07 2.33528e+07 2.37341e+07
          2.40187e+07 2.46941e+07 2.54938e+07 2.08421e+07 2.08566e+07 2.13854e+07 2.19689e+07 2.24173e+07 2.29621e+07 2.30839e+07 2.31272e+07 2.31973e+07
          2.32803e+07 2.36078e+07 2.39971e+07 2.42175e+07 2.49073e+07 2.56626e+07 2.08858e+07 2.09003e+07 2.14447e+07 2.21138e+07 2.25213e+07 2.30362e+07
          2.3186e+07 2.32529e+07 2.33474e+07 2.34675e+07 2.39208e+07 2.4374e+07 2.4566e+07 2.51798e+07 2.58795e+07 2.09299e+07 2.09448e+07 2.13266e+07
          2.22479e+07 2.26579e+07 2.3181e+07 2.33308e+07 2.33967e+07 2.35578e+07 2.37589e+07 2.43529e+07 2.48195e+07 2.49897e+07 2.54945e+07 2.61508e+07
          2.10212e+07 2.10472e+07 1.97523e+07 2.23272e+07 2.27549e+07 2.37342e+07 2.3849e+07 2.38986e+07 2.40626e+07 2.43964e+07 2.48601e+07 2.5244e+07
          2.54026e+07 2.58438e+07 2.64154e+07 2.12124e+07 2.12551e+07 2.13842e+07 2.32101e+07 2.38018e+07 2.43635e+07 2.44281e+07 2.44861e+07 2.46581e+07
          2.49844e+07 2.53828e+07 2.55995e+07 2.57746e+07 2.61954e+07 2.67114e+07 2.14558e+07 2.15047e+07 2.21422e+07 2.40818e+07 2.45677e+07 2.49846e+07
          2.50541e+07 2.51309e+07 2.52303e+07 2.55428e+07 2.58165e+07 2.59012e+07 2.60727e+07 2.65713e+07 2.71233e+07 2.18029e+07 2.18578e+07 2.31014e+07
          2.43261e+07 2.50875e+07 2.55038e+07 2.55586e+07 2.56096e+07 2.57074e+07 2.5934e+07 2.60982e+07 2.61614e+07 2.63981e+07 2.69545e+07 2.76918e+07
          2.22981e+07 2.23619e+07 2.35067e+07 2.45348e+07 2.56551e+07 2.59755e+07 2.60745e+07 2.61692e+07 2.62161e+07 2.6315e+07 2.63807e+07 2.64063e+07
          2.6655e+07 2.73848e+07 2.82566e+07 2.28924e+07 2.29915e+07 2.37091e+07 2.44208e+07 2.61646e+07 2.63929e+07 2.66155e+07 2.68183e+07 2.67314e+07
          2.67079e+07 2.67158e+07 2.67408e+07 2.70098e+07 2.78251e+07 2.85906e+07 2.37677e+07 2.38598e+07 2.4343e+07 2.48339e+07 2.65303e+07 2.67015e+07
          2.70586e+07 2.73637e+07 2.72039e+07 2.71152e+07 2.70625e+07 2.70754e+07 2.73107e+07 2.82195e+07 2.88463e+07 2.45481e+07 2.48826e+07 2.51015e+07
          2.5477e+07 2.68969e+07 2.70039e+07 2.75117e+07 2.79222e+07 2.79653e+07 2.75519e+07 2.75069e+07 2.76768e+07 2.81888e+07 2.87107e+07 2.96219e+07
          2.57941e+07 2.58448e+07 2.58561e+07 2.61972e+07 2.74062e+07 2.7514e+07 2.80599e+07 2.85371e+07 2.86353e+07 2.86134e+07 2.85627e+07 2.87983e+07
          2.93237e+07 3.01577e+07 3.03121e+07 2.67478e+07 2.67839e+07 2.66082e+07 2.70396e+07 2.82309e+07 2.83374e+07 2.87911e+07 2.9149e+07 2.92189e+07
          2.92994e+07 2.93677e+07 2.98391e+07 3.04777e+07 3.09752e+07 3.07377e+07 2.74934e+07 2.74921e+07 2.75242e+07 2.85889e+07 2.905e+07 2.91113e+07
          2.94127e+07 2.9629e+07 2.968e+07 2.97596e+07 2.9914e+07 3.06542e+07 3.1229e+07 3.14007e+07 3.12431e+07 2.8156e+07 2.81794e+07 2.82734e+07
          2.93055e+07 2.95343e+07 2.95884e+07 2.98012e+07 2.99413e+07 2.99902e+07 3.00634e+07 3.03513e+07 3.10593e+07 3.1586e+07 3.1887e+07 3.17187e+07
          2.88413e+07 2.88919e+07 2.92695e+07 2.98115e+07 2.99289e+07 2.99669e+07 3.00776e+07 3.01749e+07 3.02226e+07 3.02854e+07 3.06661e+07 3.15091e+07
          3.20771e+07 3.23715e+07 3.21536e+07 2.93952e+07 2.94548e+07 2.98142e+07 3.00863e+07 3.0206e+07 3.025e+07 3.03366e+07 3.04096e+07 3.04592e+07
          3.05167e+07 3.09846e+07 3.18758e+07 3.24564e+07 3.26975e+07 3.25862e+07 2.97029e+07 2.97687e+07 2.9982e+07 3.02894e+07 3.04489e+07 3.04963e+07
          3.05728e+07 3.06375e+07 3.06832e+07 3.07385e+07 3.12532e+07 3.22384e+07 3.28332e+07 3.30143e+07 3.31806e+07 2.99502e+07 3.00086e+07 3.02003e+07
          3.05063e+07 3.06634e+07 3.07114e+07 3.0786e+07 3.08475e+07 3.08936e+07 3.0955e+07 3.14652e+07 3.25513e+07 3.32048e+07 3.33477e+07 3.37457e+07
          3.0159e+07 3.0225e+07 3.0378e+07 3.06612e+07 3.0856e+07 3.09088e+07 3.09892e+07 3.10546e+07 3.1116e+07 3.11935e+07 3.19145e+07 3.30766e+07
          3.35504e+07 3.37015e+07 3.41874e+07 3.03593e+07 3.04277e+07 3.05643e+07 3.08411e+07 3.10396e+07 3.10976e+07 3.1191e+07 3.12661e+07 3.13458e+07
          3.14349e+07 3.24081e+07 3.36159e+07 3.39086e+07 3.40917e+07 3.46176e+07 3.05424e+07 3.06051e+07 3.07691e+07 3.10607e+07 3.12233e+07 3.12898e+07
          3.13999e+07 3.14872e+07 3.159e+07 3.1701e+07 3.28284e+07 3.40633e+07 3.43145e+07 3.45193e+07 3.49287e+07 3.07103e+07 3.077e+07 3.09142e+07
          3.12066e+07 3.14145e+07 3.14827e+07 3.16067e+07 3.17085e+07 3.1834e+07 3.19834e+07 3.32915e+07 3.44536e+07 3.47324e+07 3.49182e+07 3.52046e+07
        </DataArray>
        <DataArray type="Float32" Name="pressure[1]" NumberOfComponents="1" format="ascii">
          2.07985e+07 2.0813e+07 2.12993e+07 2.18441e+07 2.22568e+07 2.27664e+07 2.29311e+07 2.29883e+07 2.30561e+07 2.3128e+07 2.33528e+07 2.37341e+07
          2.40187e+07 2.46941e+07 2.54938e+07 2.08421e+07 2.08566e+07 2.13854e+07 2.19689e+07 2.24173e+07 2.29621e+07 2.30839e+07 2.31272e+07 2.31973e+07
          2.32803e+07 2.36078e+07 2.39971e+07 2.42175e+07 2.49073e+07 2.56626e+07 2.08858e+07 2.09003e+07 2.14447e+07 2.21138e+07 2.25213e+07 2.30362e+07
          2.3186e+07 2.32529e+07 2.33474e+07 2.34675e+07 2.39208e+07 2.4374e+07 2.4566e+07 2.51798e+07 2.58795e+07 2.09299e+07 2.09448e+07 2.13266e+07
          2.22479e+07 2.26579e+07 2.3181e+07 2.33308e+07 2.33967e+07 2.35578e+07 2.37589e+07 2.43529e+07 2.48195e+07 2.49897e+07 2.54945e+07 2.61508e+07
          2.10212e+07 2.10472e+07 1.97523e+07 2.23272e+07 2.27549e+07 2.37342e+07 2.3849e+07 2.38986e+07 2.40626e+07 2.43964e+07 2.48601e+07 2.5244e+07
          2.54026e+07 2.58438e+07 2.64154e+07 2.12124e+07 2.12551e+07 2.13842e+07 2.32101e+07 2.38018e+07 2.43635e+07 2.44281e+07 2.44861e+07 2.46581e+07
          2.49844e+07 2.53828e+07 2.55995e+07 2.57746e+07 2.61954e+07 2.67114e+07 2.14558e+07 2.15047e+07 2.21422e+07 2.40818e+07 2.45677e+07 2.49846e+07
          2.50541e+07 2.51309e+07 2.52303e+07 2.55428e+07 2.58165e+07 2.59012e+07 2.60727e+07 2.65713e+07 2.71233e+07 2.18029e+07 2.18578e+07 2.31014e+07
          2.43261e+07 2.50875e+07 2.55038e+07 2.55586e+07 2.56096e+07 2.57074e+07 2.5934e+07 2.60982e+07 2.61614e+07 2.63981e+07 2.69545e+07 2.76918e+07
          2.22981e+07 2.23619e+07 2.35067e+07 2.45348e+07 2.56551e+07 2.59755e+07 2.60745e+07 2.61692e+07 2.62161e+07 2.6315e+07 2.63807e+07 2.64063e+07
          2.6655e+07 2.73848e+07 2.82566e+07 2.28924e+07 2.29915e+07 2.37091e+07 2.44208e+07 2.61646e+07 2.63929e+07 2.66155e+07 2.68183e+07 2.67314e+07
          2.67079e+07 2.67158e+07 2.67408e+07 2.70098e+07 2.78251e+07 2.85906e+07 2.37677e+07 2.38598e+07 2.4343e+07 2.48339e+07 2.65303e+07 2.67015e+07
          2.70586e+07 2.73637e+07 2.72039e+07 2.71152e+07 2.70625e+07 2.70754e+07 2.73107e+07 2.82195e+07 2.88463e+07 2.45481e+07 2.48826e+07 2.51015e+07
          2.5477e+07 2.68969e+07 2.70039e+07 2.75117e+07 2.79222e+07 2.79653e+07 2.75519e+07 2.75069e+07 2.76768e+07 2.81888e+07 2.87107e+07 2.96219e+07
          2.57941e+07 2.58448e+07 2.58561e+07 2.61972e+07 2.74062e+07 2.7514e+07 2.80599e+07 2.85371e+07 2.86353e+07 2.86134e+07 2.85627e+07 2.87983e+07
          2.93237e+07 3.01577e+07 3.03121e+07 2.67478e+07 2.67839e+07 2.66082e+07 2.70396e+07 2.82309e+07 2.83374e+07 2.87911e+07 2.9149e+07 2.92189e+07
          2.92994e+07 2.93677e+07 2.98391e+07 3.04777e+07 3.09752e+07 3.07377e+07 2.74934e+07 2.74921e+07 2.75242e+07 2.85889e+07 2.905e+07 2.91113e+07
          2.94127e+07 2.9629e+07 2.968e+07 2.97596e+07 2.9914e+07 3.06542e+07 3.1229e+07 3.14007e+07 3.12431e+07 2.8156e+07 2.81794e+07 2.82734e+07
          2.93055e+07 2.95343e+07 2.95884e+07 2.98012e+07 2.99413e+07 2.99902e+07 3.00634e+07 3.03513e+07 3.10593e+07 3.1586e+07 3.1887e+07 3.17187e+07
          2.88413e+07 2.88919e+07 2.92695e+07 2.98115e+07 2.99289e+07 2.99669e+07 3.00776e+07 3.01749e+07 3.02226e+07 3.02854e+07 3.06661e+07 3.15091e+07
          3.20771e+07 3.23715e+07 3.21536e+07 2.93952e+07 2.94548e+07 2.98142e+07 3.00863e+07 3.0206e+07 3.025e+07 3.03366e+07 3.04096e+07 3.04592e+07
          3.05167e+07 3.09846e+07 3.18758e+07 3.24564e+07 3.26975e+07 3.25862e+07 2.97029e+07 2.97687e+07 2.9982e+07 3.02894e+07 3.04489e+07 3.04963e+07
          3.05728e+07 3.06375e+07 3.06832e+07 3.07385e+07 3.12532e+07 3.22384e+07 3.28332e+07 3.30143e+07 3.31806e+07 2.99502e+07 3.00086e+07 3.02003e+07
          3.05063e+07 3.06634e+07 3.07114e+07 3.0786e+07 3.08475e+07 3.08936e+07 3.0955e+07 3.14652e+07 3.25513e+07 3.32048e+07 3.33477e+07 3.37457e+07
          3.0159e+07 3.0225e+07 3.0378e+07 3.06612e+07 3.0856e+07 3.09088e+07 3.09892e+07 3.10546e+07 3.1116e+07 3.11935e+07 3.19145e+07 3.30766e+07
          3.35504e+07 3.37015e+07 3.41874e+07 3.03593e+07 3.04277e+07 3.05643e+07 3.08411e+07 3.10396e+07 3.10976e+07 3.1191e+07 3.12661e+07 3.13458e+07
          3.14349e+07 3.24081e+07 3.36159e+07 3.39086e+07 3.40917e+07 3.46176e+07 3.05424e+07 3.06051e+07 3.07691e+07 3.10607e+07 3.12233e+07 3.12898e+07
          3.13999e+07 3.14872e+07 3.159e+07 3.1701e+07 3.28284e+07 3.40633e+07 3.43145e+07 3.45193e+07 3.49287e+07 3.07103e+07 3.077e+07 3.09142e+07
          3.12066e+07 3.14145e+07 3.14827e+07 3.16067e+07 3.17085e+07 3.1834e+07 3.19834e+07 3.32915e+07 3.44536e+07 3.47324e+07 3.49182e+07 3.52046e+07
        </DataArray>
        <DataArray type="Float32" Name="pressure[2]" NumberOfComponents="1" format="ascii">
          2.07985e+07 2.0813e+07 2.12993e+07 2.18441e+07 2.22568e+07 2.27664e+07 2.29311e+07 2.29883e+07 2.30561e+07 2.3128e+07 2.33528e+07 2.37341e+07
          2.40187e+07 2.46941e+07 2.54938e+07 2.08421e+07 2.08566e+07 2.13854e+07 2.19689e+07 2.24173e+07 2.29621e+07 2.30839e+07 2.31272e+07 2.31973e+07
          2.32803e+07 2.36078e+07 2.39971e+07 2.42175e+07 2.49073e+07 2.56626e+07 2.08858e+07 2.09003e+07 2.14447e+07 2.21138e+07 2.25213e+07 2.30362e+07
          2.3186e+07 2.32529e+07 2.33474e+07 2.34675e+07 2.39208e+07 2.4374e+07 2.4566e+07 2.51798e+07 2.58795e+07 2.09299e+07 2.09448e+07 2.13266e+07
          2.22479e+07 2.26579e+07 2.3181e+07 2.33308e+07 2.33967e+07 2.35578e+07 2.37589e+07 2.43529e+07 2.48195e+07 2.49897e+07 2.54945e+07 2.61508e+07
          2.10212e+07 2.10472e+07 1.97523e+07 2.23272e+07 2.27549e+07 2.37342e+07 2.3849e+07 2.38986e+07 2.40626e+07 2.43964e+07 2.48601e+07 2.5244e+07
          2.54026e+07 2.58438e+07 2.64154e+07 2.12124e+07 2.12551e+07 2.13842e+07 2.32101e+07 2.38018e+07 2.43635e+07 2.44281e+07 2.44861e+07 2.46581e+07
          2.49844e+07 2.53828e+07 2.55995e+07 2.57746e+07 2.61954e+07 2.67114e+07 2.14558e+07 2.15047e+07 2.21422e+07 2.40818e+07 2.45677e+07 2.49846e+07
          2.50541e+07 2.51309e+07 2.52303e+07 2.55428e+07 2.58165e+07 2.59012e+07 2.60727e+07 2.65713e+07 2.71233e+07 2.18029e+07 2.18578e+07 2.31014e+07
          2.43261e+07 2.50875e+07 2.55038e+07 2.55586e+07 2.56096e+07 2.57074e+07 2.5934e+07 2.60982e+07 2.61614e+07 2.63981e+07 2.69545e+07 2.76918e+07
          2.22981e+07 2.23619e+07 2.35067e+07 2.45348e+07 2.56551e+07 2.59755e+07 2.60745e+07 2.61692e+07 2.62161e+07 2.6315e+07 2.63807e+07 2.64063e+07
          2.6655e+07 2.73848e+07 2.82566e+07 2.28924e+07 2.29915e+07 2.37091e+07 2.44208e+07 2.61646e+07 2.63929e+07 2.66155e+07 2.68183e+07 2.67314e+07
          2.67079e+07 2.67158e+07 2.67408e+07 2.70098e+07 2.78251e+07 2.85906e+07 2.37677e+07 2.38598e+07 2.4343e+07 2.48339e+07 2.65303e+07 2.67015e+07
          2.70586e+07 2.73637e+07 2.72039e+07 2.71152e+07 2.70625e+07 2.70754e+07 2.73107e+07 2.82195e+07 2.88463e+07 2.45481e+07 2.48826e+07 2.51015e+07
          2.5477e+07 2.68969e+07 2.70039e+07 2.75117e+07 2.79222e+07 2.79653e+07 2.75519e+07 2.75069e+07 2.76768e+07 2.81888e+07 2.87107e+07 2.96219e+07
          2.57941e+07 2.58448e+07 2.58561e+07 2.61972e+07 2.74062e+07 2.7514e+07 2.80599e+07 2.85371e+07 2.86353e+07 2.86134e+07 2.85627e+07 2.87983e+07
          2.93237e+07 3.01577e+07 3.03121e+07 2.67478e+07 2.67839e+07 2.66082e+07 2.70396e+07 2.82309e+07 2.83374e+07 2.87911e+07 2.9149e+07 2.92189e+07
          2.92994e+07 2.93677e+07 2.98391e+07 3.04777e+07 3.09752e+07 3.07377e+07 2.74934e+07 2.74921e+07 2.75242e+07 2.85889e+07 2.905e+07 2.91113e+07
          2.94127e+07 2.9629e+07 2.968e+07 2.97596e+07 2.9914e+07 3.06542e+07 3.1229e+07 3.14007e+07 3.12431e+07 2.8156e+07 2.81794e+07 2.82734e+07
          2.93055e+07 2.95343e+07 2.95884e+07 2.98012e+07 2.99413e+07 2.99902e+07 3.00634e+07 3.03513e+07 3.10593e+07 3.1586e+07 3.1887e+07 3.17187e+07
          2.88413e+07 2.88919e+07 2.92695e+07 2.98115e+07 2.99289e+07 2.99669e+07 3.00776e+07 3.01749e+07 3.02226e+07 3.02854e+07 3.06661e+07 3.15091e+07
          3.20771e+07 3.23715e+07 3.21536e+07 2.93952e+07 2.94548e+07 2.98142e+07 3.00863e+07 3.0206e+07 3.025e+07 3.03366e+07 3.04096e+07 3.04592e+07
          3.05167e+07 3.09846e+07 3.18758e+07 3.24564e+07 3.26975e+07 3.25862e+07 2.97029e+07 2.97687e+07 2.9982e+07 3.02894e+07 3.04489e+07 3.04963e+07
          3.05728e+07 3.06375e+07 3.06832e+07 3.07385e+07 3.12532e+07 3.22384e+07 3.28332e+07 3.30143e+07 3.31806e+07 2.99502e+07 3.00086e+07 3.02003e+07
          3.05063e+07 3.06634e+07 3.07114e+07 3.0786e+07 3.08475e+07 3.08936e+07 3.0955e+07 3.14652e+07 3.25513e+07 3.32048e+07 3.33477e+07 3.37457e+07
          3.0159e+07 3.0225e+07 3.0378e+07 3.06612e+07 3.0856e+07 3.09088e+07 3.09892e+07 3.10546e+07 3.1116e+07 3.11935e+07 3.19145e+07 3.30766e+07
          3.35504e+07 3.37015e+07 3.41874e+07 3.03593e+07 3.04277e+07 3.05643e+07 3.08411e+07 3.10396e+07 3.10976e+07 3.1191e+07 3.12661e+07 3.13458e+07
          3.14349e+07 3.24081e+07 3.36159e+07 3.39086e+07 3.40917e+07 3.46176e+07 3.05424e+07 3.06051e+07 3.07691e+07 3.10607e+07 3.12233e+07 3.12898e+07
          3.13999e+07 3.14872e+07 3.159e+07 3.1701e+07 3.28284e+07 3.40633e+07 3.43145e+07 3.45193e+07 3.49287e+07 3.07103e+07 3.077e+07 3.09142e+07
          3.12066e+07 3.14145e+07 3.14827e+07 3.16067e+07 3.17085e+07 3.1834e+07 3.19834e+07 3.32915e+07 3.44536e+07 3.47324e+07 3.49182e+07 3.52046e+07
        </DataArray>
        <DataArray type="Float32" Name="velocity[0]" NumberOfComponents="1" format="ascii">
          3.44262e-12 2.82025e-08 3.88796e-10 1.57471e-09 -1.92642e-10 -1.83684e-09 -1.84553e-09 2.49692e-10 -9.64494e-11 -1.87166e-09 -2.38068e-09 -3.50828e-09
          -2.53987e-09 -7.95696e-10 -2.91144e-09 -1.03733e-09 8.10619e-08 7.69425e-10 -6.15096e-09 1.30189e-10 9.29022e-10 4.15152e-09 2.21219e-09 -1.75108e-09
          -6.47537e-09 -5.02658e-09 -1.4525e-08 -9.05517e-09 -2.32053e-09 -7.6774e-09 -8.18761e-09 1.21193e-07 1.2171e-09 1.48421e-08 3.83121e-10 2.50352e-09
          5.45638e-09 1.5826e-09 -7.08743e-09 -1.29299e-08 -6.36896e-09 -3.57602e-08 -1.23328e-08 -4.52597e-09 -1.13671e-08 -2.06626e-08 1.50044e-07 5.91951e-09
          9.82474e-08 8.31765e-10 -1.16738e-08 -2.47694e-08 -2.64815e-08 -1.80804e-08 -2.29102e-08 -8.71721e-09 -6.24468e-08 -8.56165e-09 -6.25354e-09 -1.52705e-08
          -8.6197e-08 -2.19437e-08 6.71431e-10 -5.62019e-09 -9.19239e-09 -4.69176e-08 -6.55117e-08 -6.64765e-08 -2.09185e-08 -2.10028e-08 -1.11545e-08 -1.00303e-07
          -4.24607e-09 -5.60795e-09 -1.85787e-08 -1.55568e-07 -1.90796e-07 -5.97815e-09 -1.14278e-07 -1.94337e-08 -1.1211e-07 -7.45257e-08 -1.03479e-07 -1.45015e-08
          -8.92397e-09 -1.41992e-08 -1.362e-07 -2.42843e-09 -4.41769e-09 -2.07109e-08 -1.59927e-07 -1.71065e-07 -4.04647e-09 -3.81938e-08 -1.40956e-08 -1.72213e-07
          -5.63994e-08 -1.68462e-07 -9.94219e-09 -3.66894e-09 -1.61087e-08 -1.53291e-07 -1.94917e-09 -4.23396e-09 -2.21419e-08 -1.45778e-07 -1.58119e-07 -3.61414e-09
          -6.36559e-09 -8.63489e-09 -2.0188e-07 -3.19613e-08 -2.46021e-07 -6.35022e-09 -2.28001e-09 -1.69908e-08 -1.58321e-07 -1.51633e-09 -4.25598e-09 -2.37775e-08
          -1.29246e-07 -1.39935e-07 -1.50999e-09 5.5111e-10 -7.42093e-09 -2.19977e-07 -1.19534e-08 -3.1286e-07 -4.55602e-09 -2.37663e-09 -2.68162e-08 -1.43238e-07
          -1.35699e-09 -3.83492e-09 -2.59723e-08 -1.02904e-07 -1.2332e-07 -7.98713e-09 4.96842e-10 -5.68997e-09 -2.25044e-07 -4.0412e-09 -3.80464e-07 -4.08921e-09
          -2.97115e-09 -4.55828e-08 -1.11317e-07 -1.91645e-09 -3.45338e-09 -2.8151e-08 -7.85068e-08 -8.86022e-08 -2.6343e-08 -2.39189e-09 -5.20847e-09 -2.24055e-07
          -1.36897e-09 -4.45148e-07 -4.73379e-09 -4.55633e-09 -6.82084e-08 -6.56108e-08 -4.23236e-09 -4.73299e-09 -2.9958e-08 -5.34661e-08 -5.78136e-08 -4.80858e-08
          -2.50651e-09 -7.93363e-09 -2.26528e-07 -1.14295e-09 -4.87761e-07 -1.50744e-08 -6.32089e-09 -6.1332e-08 -3.48914e-08 -1.18496e-08 -7.91506e-09 -3.11486e-08
          -3.47082e-08 -6.31961e-08 -4.71408e-08 -3.82522e-09 -1.27048e-08 -2.13846e-07 -1.6364e-09 -4.9796e-07 -4.49511e-08 -7.31198e-09 -3.22797e-08 -2.06666e-08
          -2.53078e-08 -1.35535e-08 -3.1477e-08 -3.60413e-08 -7.56437e-08 -2.77452e-08 -4.60587e-09 -1.89548e-08 -1.9825e-07 -1.67125e-09 -4.6785e-07 -7.83136e-08
          -1.22931e-08 -1.79507e-08 -6.39653e-09 -3.10077e-08 -2.45956e-08 -2.98936e-08 -4.39947e-08 -7.08395e-08 -1.54091e-08 -3.36813e-09 -2.54061e-08 -1.9626e-07
          -1.18242e-09 -4.22117e-07 -9.45045e-08 -2.08222e-08 -1.23029e-08 -3.38861e-09 -2.90647e-08 -3.85458e-08 -2.64579e-08 -5.4301e-08 -5.64365e-08 -7.60176e-09
          -3.17946e-09 -3.127e-08 -1.93207e-07 -1.45944e-09 -3.58132e-07 -9.87224e-08 -2.98633e-08 -7.68194e-09 -4.63368e-09 -3.30337e-08 -5.67929e-08 -2.20992e-08
          -5.80833e-08 -4.44636e-08 -3.58598e-09 -4.19815e-09 -4.41939e-08 -1.6872e-07 -2.82342e-09 -2.83314e-07 -9.94092e-08 -4.66925e-08 -3.28688e-09 -4.59535e-09
          -2.69761e-08 -8.42789e-08 -1.74447e-08 -5.68002e-08 -3.51936e-08 -1.55068e-09 -2.85336e-09 -6.5311e-08 -1.21332e-07 -4.33153e-09 -2.1609e-07 -1.07056e-07
          -7.03181e-08 -2.34767e-09 -3.11482e-09 -1.75304e-08 -1.10111e-07 -1.35477e-08 -5.1024e-08 -2.50808e-08 -1.07155e-09 -1.15744e-09 -8.11676e-08 -7.71855e-08
          -4.56186e-09 -1.53909e-07 -1.0679e-07 -1.10181e-07 -1.37078e-09 -2.56922e-09 -2.2918e-08 -1.258e-07 -1.18183e-08 -4.22604e-08 -1.68906e-08 -1.29841e-09
          -5.53326e-10 -8.68765e-08 -4.40601e-08 -3.81771e-09 -1.12592e-07 -6.89866e-08 -1.9059e-07 -2.38694e-09 -3.64897e-09 -3.40862e-08 -1.33343e-07 -1.26849e-08
          -3.22843e-08 -1.13881e-08 -1.20909e-09 -1.40553e-10 -8.10759e-08 -2.31398e-08 -3.28322e-09 -8.85519e-08 -2.88372e-08 -2.64187e-07 -3.7396e-09 -6.71869e-09
          -4.149e-08 -1.39291e-07 -1.45449e-08 -2.03054e-08 -5.80939e-09 -1.92925e-09 -7.43077e-10 -6.00826e-08 -1.57907e-08 -3.21242e-09 -8.34653e-08 -1.56334e-08
          -2.79168e-07 -3.41371e-09 -1.29186e-08 -4.541e-08 -1.45319e-07 -1.80261e-08 -9.47872e-09 -2.32301e-09 -8.7037e-10 -4.91655e-10 -3.00516e-08 -1.18077e-08
          -2.63665e-09 -8.79713e-08 -1.25918e-08 -2.40463e-07 -4.7371e-09 -2.22784e-08 -5.94698e-08 -1.51327e-07 -2.35104e-08 -2.51142e-09 -5.23356e-10 1.92602e-10
          7.19031e-11 -7.10168e-09 -4.50968e-09 -9.65179e-10 -4.48129e-08 -5.86364e-09 -1.03951e-07 -3.12478e-09 -1.35147e-08 -3.54881e-08 -7.77533e-08 -1.31955e-08
        </DataArray>
        <DataArray type="Float32" Name="velocity[1]" NumberOfComponents="1" format="ascii">
          -5.35023e-28 4.51466e-24 -4.47399e-26 2.44729e-25 2.99388e-26 0 2.86817e-25 -7.49692e-26 -7.86343e-26 6.16665e-24 -3.83812e-24 -2.01328e-26
          2.48082e-24 -9.63287e-25 4.5287e-25 1.62283e-25 3.71522e-24 -9.61507e-26 -1.44539e-24 1.17466e-25 8.82548e-24 1.56159e-24 4.31871e-25 -8.49497e-24
          7.73368e-26 0 1.6955e-26 -1.59888e-26 -5.35992e-28 2.88213e-25 9.48955e-25 -5.93001e-24 -1.31825e-24 4.70797e-24 6.27717e-25 0
          1.17178e-24 4.14132e-25 -5.87171e-25 0 7.37409e-24 -1.22386e-23 0 1.13927e-24 -2.84422e-25 1.98455e-24 9.86552e-24 -1.40542e-24
          -9.71588e-24 1.28733e-25 1.21459e-23 -2.75061e-23 3.5185e-23 -3.19922e-24 9.39945e-25 3.9004e-24 -4.68364e-24 2.87515e-24 -1.28401e-24 9.63823e-25
          -8.08742e-26 -5.76161e-23 4.14849e-24 6.08561e-24 1.36969e-24 -3.24043e-24 -1.92685e-25 4.59883e-26 9.28112e-25 -5.4177e-24 4.19211e-24 -7.76047e-24
          1.58551e-27 1.39702e-25 -1.54004e-24 -1.1137e-25 5.13287e-24 -9.99086e-26 3.88027e-24 -1.57629e-25 -6.13333e-24 0 3.00919e-26 5.1932e-25
          6.94514e-25 -2.97705e-25 7.48566e-24 -1.24336e-24 7.37875e-25 1.54074e-24 -7.67525e-25 6.77911e-25 0 4.07007e-24 -8.31734e-25 -1.09484e-23
          8.64588e-26 5.78902e-26 -1.51966e-24 -3.04606e-29 1.93036e-27 2.37545e-27 1.45145e-26 3.33189e-28 -1.67867e-24 -1.65432e-25 1.15425e-23 1.75684e-24
          1.34929e-24 5.23415e-26 1.30777e-23 -6.09668e-27 -2.42664e-26 3.366e-25 8.33127e-27 -2.13232e-24 -1.14051e-23 3.37144e-28 -3.26062e-25 1.93287e-24
          -1.43728e-24 -7.65346e-24 9.65808e-26 -2.55199e-24 -9.54416e-26 2.40851e-24 0 0 3.50106e-25 -4.58196e-28 1.41604e-25 4.35843e-24
          6.13711e-28 5.24387e-26 3.36e-28 -9.40384e-24 1.54686e-24 1.44836e-24 -4.73829e-25 -2.12842e-24 2.80061e-24 -5.27117e-24 5.60567e-24 -1.88204e-25
          -6.95717e-26 2.2168e-25 3.72306e-24 -8.18292e-25 0 -2.10353e-24 5.01257e-24 1.79032e-25 1.72822e-24 -1.87144e-25 2.042e-24 -3.80247e-27
          -3.44988e-24 8.89879e-24 5.95559e-26 1.75958e-25 -6.16619e-25 5.69379e-24 1.739e-24 -2.25453e-25 1.12727e-25 -2.69696e-24 1.53813e-24 -1.64793e-24
          -3.91235e-26 -1.33284e-24 -1.76879e-23 2.95187e-26 2.17823e-24 -3.41882e-24 -9.75913e-26 1.45801e-24 2.14665e-24 -1.07798e-24 9.03038e-25 -7.19488e-26
          2.69755e-24 4.16846e-24 0 -1.84482e-25 4.19884e-25 2.14361e-24 4.76783e-26 -5.87003e-25 -3.09677e-24 4.58249e-28 -1.78265e-24 -7.26865e-25
          1.23802e-24 -7.58967e-25 -2.03631e-28 2.07028e-25 2.86025e-28 8.04368e-25 1.24597e-25 7.32855e-28 1.46138e-23 -4.12677e-26 -4.08838e-24 5.73447e-24
          -1.03954e-24 1.78235e-24 1.95193e-24 -3.92884e-24 8.20959e-29 -2.21038e-24 -2.91178e-24 -4.90629e-24 -2.66954e-27 3.26323e-25 4.50615e-25 4.0483e-28
          -3.42157e-26 -7.39016e-24 1.94317e-24 0 0 2.6723e-25 3.33766e-24 -4.21671e-25 4.11204e-24 0 1.05132e-24 0
          -2.97002e-25 4.61245e-25 2.77662e-28 7.72668e-26 -6.92505e-24 1.04521e-28 -1.64683e-28 -6.6454e-29 3.57395e-24 -3.83838e-28 -1.05947e-24 -1.90132e-24
          -5.95295e-28 8.09866e-25 3.83509e-28 -5.8952e-26 1.54803e-24 -8.85079e-24 0 -9.08543e-24 0 4.21673e-28 2.64577e-24 -3.28184e-24
          -1.50799e-24 2.34117e-28 1.17812e-24 0 3.05038e-24 0 3.55677e-25 1.44566e-24 4.33618e-24 9.91436e-26 -5.74504e-24 -4.92187e-24
          -1.8538e-24 1.56476e-25 4.55001e-26 8.37808e-30 -1.53797e-24 -9.27355e-25 3.62329e-24 -1.85379e-24 2.00778e-24 -1.62914e-24 7.30467e-25 7.42443e-24
          -6.32817e-26 -3.91839e-24 8.9727e-24 4.72297e-24 -2.8395e-24 6.20795e-26 7.97362e-25 -3.6282e-28 9.09351e-25 2.38715e-28 -3.28937e-24 7.13308e-25
          -1.4946e-24 3.13728e-25 -2.29578e-24 -1.04193e-25 -5.00491e-24 -4.52801e-24 8.15748e-24 2.31626e-25 3.04542e-24 9.38208e-25 -3.05727e-25 -7.5667e-25
          -8.71567e-25 5.23529e-25 0 -3.34774e-26 -1.05845e-24 3.78731e-24 -6.65843e-24 6.65988e-24 -4.89222e-24 1.27246e-27 0 0
          2.12531e-25 -5.80356e-28 1.19841e-24 -9.90097e-25 -1.04139e-24 9.60159e-25 -1.61235e-24 -7.4853e-25 -1.13381e-24 1.88991e-26 4.43154e-25 -3.19343e-24
          1.15479e-23 -2.21594e-25 -5.55955e-24 3.96407e-25 8.10171e-25 -7.33843e-29 -6.92179e-25 -2.74007e-28 -3.50378e-28 9.78136e-26 -2.46338e-24 4.33727e-25
          -1.09766e-25 8.72206e-24 -3.62786e-24 0 -2.35055e-25 -7.37949e-25 5.65256e-24 -6.50243e-25 0 -3.90605e-25 -3.44367e-28 -3.18416e-25
          5.40088e-25 -1.1033e-24 -1.84145e-24 -3.01433e-25 -2.36494e-24 9.11279e-25 -2.52233e-23 0 2.52513e-23 -1.85485e-23 1.53467e-23 3.84885e-25
        </DataArray>
        <DataArray type="Float32" Name="velocity[2]" NumberOfComponents="1" format="ascii">
          -4.26506e-12 3.59553e-09 -2.73537e-09 -2.81065e-09 -3.37949e-09 -3.64624e-09 -3.56067e-09 -3.17159e-09 -3.27006e-09 -3.54441e-09 -3.43159e-09 -3.28838e-09
          -2.74903e-09 -2.17758e-09 -1.48301e-09 -1.19734e-10 1.3225e-08 -2.18144e-09 -3.24673e-09 -2.02653e-09 -2.23362e-09 -2.14678e-09 -2.77027e-09 -3.46117e-09
          -4.13415e-09 -3.77322e-09 -4.99802e-09 -3.33139e-09 -1.76473e-09 -1.97108e-09 -1.03841e-09 2.14081e-08 -6.09401e-10 -5.16196e-11 -4.44382e-09 -4.07326e-09
          -3.3216e-09 -3.80319e-09 -5.08861e-09 -5.78602e-09 -4.42487e-09 -8.72352e-09 -3.82881e-09 -2.26573e-09 -2.61529e-09 -3.21611e-09 2.66371e-08 1.43057e-10
          1.30994e-08 -7.13831e-09 -9.05504e-09 -1.0318e-08 -9.33836e-09 -6.78276e-09 -6.99397e-09 -4.17362e-09 -1.28176e-08 -2.76471e-09 -2.52115e-09 -3.38069e-09
          -1.12204e-08 1.11633e-09 -1.81673e-10 -5.56243e-09 -7.8127e-09 -1.30787e-08 -1.4887e-08 -1.42627e-08 -6.16699e-09 -6.82649e-09 -5.37704e-09 -1.95475e-08
          -1.19069e-09 -1.66415e-09 -3.6886e-09 -2.67036e-08 -3.29779e-08 -1.41879e-09 -2.32612e-08 -9.12291e-09 -2.36655e-08 -1.53961e-08 -2.01385e-08 -4.0092e-09
          -3.36591e-09 -4.35531e-09 -2.50913e-08 -8.8428e-10 -1.32294e-09 -3.94862e-09 -2.85298e-08 -3.09265e-08 -1.49461e-09 -8.85875e-09 -6.32237e-09 -3.36251e-08
          -1.26229e-08 -3.15502e-08 -2.63233e-09 -1.73096e-09 -3.97699e-09 -2.78012e-08 -7.43778e-10 -1.12251e-09 -4.08335e-09 -2.61882e-08 -2.92502e-08 -2.50296e-09
          -3.31274e-09 -3.99459e-09 -3.76608e-08 -7.61984e-09 -4.48017e-08 -1.65903e-09 -1.00843e-09 -3.55098e-09 -2.84825e-08 -9.3199e-10 -1.46543e-09 -4.55772e-09
          -2.32666e-08 -2.59758e-08 -1.96946e-09 -1.81885e-09 -3.41598e-09 -4.05638e-08 -3.68376e-09 -5.60447e-08 -8.92294e-10 -5.46197e-10 -4.28102e-09 -2.50793e-08
          -8.82578e-10 -1.35083e-09 -4.94424e-09 -1.92822e-08 -2.43375e-08 -3.67132e-09 -1.38963e-09 -2.4033e-09 -4.12569e-08 -2.46076e-09 -6.79356e-08 -5.91235e-10
          -3.61141e-10 -7.23695e-09 -1.9282e-08 -1.05251e-09 -1.31936e-09 -5.32334e-09 -1.42083e-08 -1.76237e-08 -6.94647e-09 -1.75482e-09 -2.21801e-09 -4.07105e-08
          -1.39144e-09 -7.88924e-08 -4.45935e-10 -3.46152e-10 -1.07121e-08 -1.11097e-08 -1.81334e-09 -1.53904e-09 -5.52437e-09 -1.06742e-08 -1.29346e-08 -1.05469e-08
          -1.58365e-09 -2.42405e-09 -4.08084e-08 -1.00973e-09 -8.6438e-08 -2.117e-09 4.84975e-11 -1.08749e-08 -7.63537e-09 -3.38118e-09 -2.01296e-09 -5.64685e-09
          -6.12035e-09 -1.06616e-08 -8.35178e-09 -1.65825e-09 -3.02128e-09 -3.89878e-08 -2.20247e-09 -8.98135e-08 -8.83821e-09 -9.91328e-10 -5.97147e-09 -5.19433e-09
          -6.16033e-09 -2.92594e-09 -5.50163e-09 -6.26602e-09 -1.30181e-08 -5.1102e-09 -1.73006e-09 -4.09136e-09 -3.55967e-08 -1.03192e-09 -8.3928e-08 -1.5148e-08
          -2.51753e-09 -3.64616e-09 -2.10258e-09 -6.77019e-09 -4.58129e-09 -4.78849e-09 -7.31959e-09 -1.19954e-08 -2.99079e-09 -1.29855e-09 -5.0718e-09 -3.50522e-08
          -6.67238e-10 -7.54159e-08 -1.79995e-08 -4.68525e-09 -3.06867e-09 -1.54183e-09 -6.05088e-09 -6.58571e-09 -4.00249e-09 -9.33015e-09 -9.80017e-09 -1.81321e-09
          -1.28733e-09 -6.05066e-09 -3.45821e-08 -8.91959e-10 -6.49604e-08 -2.03182e-08 -7.88299e-09 -4.01709e-09 -3.65258e-09 -8.33775e-09 -1.03579e-08 -3.10614e-09
          -1.02358e-08 -8.0885e-09 -1.20328e-09 -1.3549e-09 -7.85775e-09 -3.0293e-08 -2.02494e-09 -5.22687e-08 -2.06937e-08 -1.09802e-08 -2.88877e-09 -3.22699e-09
          -7.90027e-09 -1.59948e-08 -2.31459e-09 -1.01079e-08 -6.59327e-09 -9.78581e-10 -1.40898e-09 -1.19093e-08 -2.23923e-08 -2.9556e-09 -4.12503e-08 -2.25122e-08
          -1.50521e-08 -2.62124e-09 -2.79717e-09 -5.33079e-09 -1.99894e-08 -1.8508e-09 -9.28871e-09 -5.31071e-09 -1.30873e-09 -1.25008e-09 -1.51068e-08 -1.5011e-08
          -3.07297e-09 -3.00914e-08 -2.29761e-08 -2.29774e-08 -2.70284e-09 -2.96799e-09 -6.23798e-09 -2.30713e-08 -2.04516e-09 -7.7418e-09 -3.66717e-09 -1.07782e-09
          -1.03146e-09 -1.6231e-08 -9.31648e-09 -2.91863e-09 -2.25376e-08 -1.70255e-08 -3.81166e-08 -2.73649e-09 -2.77588e-09 -7.65171e-09 -2.44596e-08 -2.56415e-09
          -6.0668e-09 -2.92462e-09 -1.25306e-09 -1.00869e-09 -1.56329e-08 -6.06747e-09 -2.85891e-09 -1.81118e-08 -8.45575e-09 -4.97724e-08 -3.01016e-09 -3.44855e-09
          -9.39322e-09 -2.58472e-08 -2.85725e-09 -4.00537e-09 -1.98468e-09 -1.39422e-09 -1.14915e-09 -1.23502e-08 -5.35241e-09 -3.18694e-09 -1.72588e-08 -5.35273e-09
          -5.21988e-08 -3.83115e-09 -5.24241e-09 -1.05248e-08 -2.76662e-08 -4.04657e-09 -1.96861e-09 -1.06792e-09 -9.84683e-10 -1.05884e-09 -7.14855e-09 -4.90714e-09
          -3.43918e-09 -1.84614e-08 -5.17764e-09 -4.67128e-08 -6.35187e-09 -9.06366e-09 -1.45692e-08 -2.9302e-08 -5.10601e-09 -6.10404e-10 -4.53678e-10 -3.37229e-10
          -3.38598e-10 -1.979e-09 -2.11142e-09 -1.72285e-09 -1.06756e-08 -5.35506e-09 -2.71587e-08 -1.16317e-08 -1.01967e-08 -1.16451e-08 -1.62856e-08 -2.73957e-09
        </DataArray>
        <DataArray type="Float32" Name="z[0]" NumberOfComponents="1" format="ascii">
          0.150578 0.150579 0.15058 0.150582 0.150582 0.150583 0.150584 0.150585 0.150585 0.150586 0.150587 0.150588
          0.150589 0.150591 0.150596 0.150581 0.150582 0.150583 0.150585 0.150586 0.150587 0.150587 0.150588 0.150588
          0.150589 0.15059 0.150591 0.150593 0.150595 0.150599 0.150584 0.150585 0.150587 0.150588 0.150589 0.15059
          0.15059 0.150591 0.150592 0.150593 0.150593 0.150595 0.150596 0.150598 0.150602 0.150588 0.150589 0.15059
          0.150591 0.150592 0.170959 0.188115 0.214311 0.150595 0.150596 0.150597 0.150598 0.150599 0.150601 0.150605
          0.150591 0.150592 0.150698 0.361618 0.369906 0.405221 0.395953 0.389791 0.150598 0.150599 0.1506 0.150601
          0.150602 0.150604 0.150609 0.150594 0.150595 0.16258 0.417344 0.443315 0.44912 0.421834 0.40806 0.150601
          0.150602 0.150603 0.150604 0.150605 0.150607 0.150612 0.150597 0.150598 0.166934 0.41957 0.455557 0.463027