<?xml version="1.0"?>
<VTKFile type="UnstructuredGrid" version="0.1" byte_order="LittleEndian">
  <UnstructuredGrid>
    <Piece NumberOfCells="360" NumberOfPoints="800">
      <CellData Scalars="pressure[0]">
        <DataArray type="Float32" Name="pressure[0]" NumberOfComponents="1" format="ascii">
          2.10679e+07 2.10825e+07 2.17429e+07 2.24241e+07 2.2809e+07 2.32239e+07 2.33528e+07 2.34007e+07 2.34592e+07 2.35235e+07 2.3699e+07 2.39894e+07
          2.42045e+07 2.48012e+07 2.55283e+07 2.11124e+07 2.11267e+07 2.18562e+07 2.25732e+07 2.29908e+07 2.34033e+07 2.34975e+07 2.35348e+07 2.35948e+07
          2.36667e+07 2.39089e+07 2.42022e+07 2.43782e+07 2.49958e+07 2.56938e+07 2.1188e+07 2.12293e+07 2.19566e+07 2.2722e+07 2.30966e+07 2.34832e+07
          2.3596e+07 2.36499e+07 2.3727e+07 2.38241e+07 2.41498e+07 2.44816e+07 2.46595e+07 2.52354e+07 2.5902e+07 2.13122e+07 2.13583e+07 2.18214e+07
          2.28575e+07 2.32311e+07 2.36055e+07 2.37078e+07 2.37564e+07 2.38722e+07 2.40196e+07 2.44525e+07 2.48424e+07 2.50209e+07 2.55202e+07 2.616e+07
          2.14434e+07 2.14664e+07 1.98054e+07 2.29591e+07 2.34315e+07 2.38242e+07 2.389e+07 2.39257e+07 2.41062e+07 2.43739e+07 2.48214e+07 2.51915e+07
          2.53751e+07 2.58422e+07 2.64139e+07 2.16467e+07 2.16897e+07 2.23359e+07 2.35056e+07 2.38369e+07 2.40878e+07 2.41294e+07 2.41646e+07 2.43979e+07
          2.48071e+07 2.52656e+07 2.55069e+07 2.57047e+07 2.61659e+07 2.6698e+07 2.1909e+07 2.196e+07 2.30811e+07 2.39863e+07 2.41951e+07 2.43642e+07
          2.43965e+07 2.44211e+07 2.46519e+07 2.52177e+07 2.56754e+07 2.57861e+07 2.5975e+07 2.65164e+07 2.70919e+07 2.22873e+07 2.23428e+07 2.34863e+07
          2.43359e+07 2.4527e+07 2.46481e+07 2.46828e+07 2.47349e+07 2.50004e+07 2.55703e+07 2.59525e+07 2.60408e+07 2.62929e+07 2.68803e+07 2.76345e+07
          2.28381e+07 2.29018e+07 2.38246e+07 2.4615e+07 2.48351e+07 2.49305e+07 2.49902e+07 2.51749e+07 2.54852e+07 2.59974e+07 2.62485e+07 2.62904e+07
          2.65484e+07 2.72961e+07 2.8177e+07 2.35059e+07 2.36096e+07 2.41146e+07 2.47157e+07 2.50967e+07 2.5178e+07 2.53071e+07 2.5797e+07 2.60551e+07
          2.64337e+07 2.66145e+07 2.66517e+07 2.69271e+07 2.77221e+07 2.85019e+07 2.42989e+07 2.44172e+07 2.46699e+07 2.50339e+07 2.53184e+07 2.53768e+07
          2.55773e+07 2.6407e+07 2.66198e+07 2.68544e+07 2.69953e+07 2.70453e+07 2.72884e+07 2.80871e+07 2.87428e+07 2.5034e+07 2.51045e+07 2.52147e+07
          2.53966e+07 2.55448e+07 2.55683e+07 2.58457e+07 2.70464e+07 2.71734e+07 2.72961e+07 2.73915e+07 2.74551e+07 2.77097e+07 2.84625e+07 2.90013e+07
          2.55911e+07 2.56394e+07 2.56725e+07 2.58482e+07 2.59685e+07 2.59681e+07 2.68022e+07 2.7613e+07 2.76534e+07 2.77667e+07 2.78554e+07 2.79739e+07
          2.82192e+07 2.88556e+07 2.9703e+07 2.60344e+07 2.60845e+07 2.61457e+07 2.64593e+07 2.66545e+07 2.69604e+07 2.76216e+07 2.82473e+07 2.82948e+07
          2.83151e+07 2.83214e+07 2.84893e+07 2.96339e+07 3.03425e+07 3.01562e+07 2.63898e+07 2.64299e+07 2.67009e+07 2.71666e+07 2.78819e+07 2.79857e+07
          2.84134e+07 2.87991e+07 2.88496e+07 2.89192e+07 2.90498e+07 2.98952e+07 3.0687e+07 3.08674e+07 3.0711e+07 2.67126e+07 2.67628e+07 2.72582e+07
          2.78235e+07 2.85252e+07 2.86142e+07 2.89327e+07 2.91575e+07 2.92099e+07 2.9292e+07 2.96137e+07 3.0459e+07 3.1096e+07 3.14447e+07 3.12394e+07
          2.76534e+07 2.76866e+07 2.78621e+07 2.88354e+07 2.90675e+07 2.91096e+07 2.92615e+07 2.93989e+07 2.94491e+07 2.95158e+07 2.99687e+07 3.09859e+07
          3.16697e+07 3.2009e+07 3.1725e+07 2.84123e+07 2.84683e+07 2.88613e+07 2.92264e+07 2.93869e+07 2.94324e+07 2.95454e+07 2.96426e+07 2.96952e+07
          2.97555e+07 3.03196e+07 3.14012e+07 3.21015e+07 3.23742e+07 3.22107e+07 2.87593e+07 2.88275e+07 2.90765e+07 2.94602e+07 2.96568e+07 2.97057e+07
          2.98002e+07 2.98817e+07 2.99295e+07 2.99872e+07 3.06101e+07 3.18097e+07 3.25286e+07 3.27273e+07 3.28945e+07 2.90314e+07 2.90912e+07 2.93189e+07
          2.96972e+07 2.98875e+07 2.99368e+07 3.00261e+07 3.01011e+07 3.01493e+07 3.02146e+07 3.08323e+07 3.21572e+07 3.2949e+07 3.31007e+07 3.35447e+07
          2.92543e+07 2.9324e+07 2.95031e+07 2.98509e+07 3.00889e+07 3.0144e+07 3.02389e+07 3.03169e+07 3.03845e+07 3.04699e+07 3.13477e+07 3.27666e+07
          3.33372e+07 3.3499e+07 3.4048e+07 2.94662e+07 2.95392e+07 2.96972e+07 3.00362e+07 3.02786e+07 3.034e+07 3.045e+07 3.0539e+07 3.06292e+07
          3.07295e+07 3.19179e+07 3.33933e+07 3.37408e+07 3.39421e+07 3.45381e+07 2.96561e+07 2.97217e+07 2.99149e+07 3.02724e+07 3.04682e+07 3.05402e+07
          3.06702e+07 3.07738e+07 3.08924e+07 3.10196e+07 3.23981e+07 3.39068e+07 3.42031e+07 3.44311e+07 3.48831e+07 2.98265e+07 2.98882e+07 3.00558e+07
          3.04136e+07 3.06672e+07 3.07412e+07 3.08882e+07 3.10096e+07 3.11559e+07 3.13301e+07 3.29312e+07 3.43501e+07 3.46804e+07 3.48849e+07 3.51855e+07
        </DataArray>
        <DataArray type="Float32" Name="pressure[1]" NumberOfComponents="1" format="ascii">
          2.10679e+07 2.10825e+07 2.17429e+07 2.24241e+07 2.2809e+07 2.32239e+07 2.33528e+07 2.34007e+07 2.34592e+07 2.35235e+07 2.3699e+07 2.39894e+07
          2.42045e+07 2.48012e+07 2.55283e+07 2.11124e+07 2.11267e+07 2.18562e+07 2.25732e+07 2.29908e+07 2.34033e+07 2.34975e+07 2.35348e+07 2.35948e+07
          2.36667e+07 2.39089e+07 2.42022e+07 2.43782e+07 2.49958e+07 2.56938e+07 2.1188e+07 2.12293e+07 2.19566e+07 2.2722e+07 2.30966e+07 2.34832e+07
          2.3596e+07 2.36499e+07 2.3727e+07 2.38241e+07 2.41498e+07 2.44816e+07 2.46595e+07 2.52354e+07 2.5902e+07 2.13122e+07 2.13583e+07 2.18214e+07
          2.28575e+07 2.32311e+07 2.36055e+07 2.37078e+07 2.37564e+07 2.38722e+07 2.40196e+07 2.44525e+07 2.48424e+07 2.50209e+07 2.55202e+07 2.616e+07
          2.14434e+07 2.14664e+07 1.98054e+07 2.29591e+07 2.34315e+07 2.38242e+07 2.389e+07 2.39257e+07 2.41062e+07 2.43739e+07 2.48214e+07 2.51915e+07
          2.53751e+07 2.58422e+07 2.64139e+07 2.16467e+07 2.16897e+07 2.23359e+07 2.35056e+07 2.38369e+07 2.40878e+07 2.41294e+07 2.41646e+07 2.43979e+07
          2.48071e+07 2.52656e+07 2.55069e+07 2.57047e+07 2.61659e+07 2.6698e+07 2.1909e+07 2.196e+07 2.30811e+07 2.39863e+07 2.41951e+07 2.43642e+07
          2.43965e+07 2.44211e+07 2.46519e+07 2.52177e+07 2.56754e+07 2.57861e+07 2.5975e+07 2.65164e+07 2.70919e+07 2.22873e+07 2.23428e+07 2.34863e+07
          2.43359e+07 2.4527e+07 2.46481e+07 2.46828e+07 2.47349e+07 2.50004e+07 2.55703e+07 2.59525e+07 2.60408e+07 2.62929e+07 2.68803e+07 2.76345e+07
          2.28381e+07 2.29018e+07 2.38246e+07 2.4615e+07 2.48351e+07 2.49305e+07 2.49902e+07 2.51749e+07 2.54852e+07 2.59974e+07 2.62485e+07 2.62904e+07
          2.65484e+07 2.72961e+07 2.8177e+07 2.35059e+07 2.36096e+07 2.41146e+07 2.47157e+07 2.50967e+07 2.5178e+07 2.53071e+07 2.5797e+07 2.60551e+07
          2.64337e+07 2.66145e+07 2.66517e+07 2.69271e+07 2.77221e+07 2.85019e+07 2.42989e+07 2.44172e+07 2.46699e+07 2.50339e+07 2.53184e+07 2.53768e+07
          2.55773e+07 2.6407e+07 2.66198e+07 2.68544e+07 2.69953e+07 2.70453e+07 2.72884e+07 2.80871e+07 2.87428e+07 2.5034e+07 2.51045e+07 2.52147e+07
          2.53966e+07 2.55448e+07 2.55683e+07 2.58457e+07 2.70464e+07 2.71734e+07 2.72961e+07 2.73915e+07 2.74551e+07 2.77097e+07 2.84625e+07 2.90013e+07
          2.55911e+07 2.56394e+07 2.56725e+07 2.58482e+07 2.59685e+07 2.59681e+07 2.68022e+07 2.7613e+07 2.76534e+07 2.77667e+07 2.78554e+07 2.79739e+07
          2.82192e+07 2.88556e+07 2.9703e+07 2.60344e+07 2.60845e+07 2.61457e+07 2.64593e+07 2.66545e+07 2.69604e+07 2.76216e+07 2.82473e+07 2.82948e+07
          2.83151e+07 2.83214e+07 2.84893e+07 2.96339e+07 3.03425e+07 3.01562e+07 2.63898e+07 2.64299e+07 2.67009e+07 2.71666e+07 2.78819e+07 2.79857e+07
          2.84134e+07 2.87991e+07 2.88496e+07 2.89192e+07 2.90498e+07 2.98952e+07 3.0687e+07 3.08674e+07 3.0711e+07 2.67126e+07 2.67628e+07 2.72582e+07
          2.78235e+07 2.85252e+07 2.86142e+07 2.89327e+07 2.91575e+07 2.92099e+07 2.9292e+07 2.96137e+07 3.0459e+07 3.1096e+07 3.14447e+07 3.12394e+07
          2.76534e+07 2.76866e+07 2.78621e+07 2.88354e+07 2.90675e+07 2.91096e+07 2.92615e+07 2.93989e+07 2.94491e+07 2.95158e+07 2.99687e+07 3.09859e+07
          3.16697e+07 3.2009e+07 3.1725e+07 2.84123e+07 2.84683e+07 2.88613e+07 2.92264e+07 2.93869e+07 2.94324e+07 2.95454e+07 2.96426e+07 2.96952e+07
          2.97555e+07 3.03196e+07 3.14012e+07 3.21015e+07 3.23742e+07 3.22107e+07 2.87593e+07 2.88275e+07 2.90765e+07 2.94602e+07 2.96568e+07 2.97057e+07
          2.98002e+07 2.98817e+07 2.99295e+07 2.99872e+07 3.06101e+07 3.18097e+07 3.25286e+07 3.27273e+07 3.28945e+07 2.90314e+07 2.90912e+07 2.93189e+07
          2.96972e+07 2.98875e+07 2.99368e+07 3.00261e+07 3.01011e+07 3.01493e+07 3.02146e+07 3.08323e+07 3.21572e+07 3.2949e+07 3.31007e+07 3.35447e+07
          2.92543e+07 2.9324e+07 2.95031e+07 2.98509e+07 3.00889e+07 3.0144e+07 3.02389e+07 3.03169e+07 3.03845e+07 3.04699e+07 3.13477e+07 3.27666e+07
          3.33372e+07 3.3499e+07 3.4048e+07 2.94662e+07 2.95392e+07 2.96972e+07 3.00362e+07 3.02786e+07 3.034e+07 3.045e+07 3.0539e+07 3.06292e+07
          3.07295e+07 3.19179e+07 3.33933e+07 3.37408e+07 3.39421e+07 3.45381e+07 2.96561e+07 2.97217e+07 2.99149e+07 3.02724e+07 3.04682e+07 3.05402e+07
          3.06702e+07 3.07738e+07 3.08924e+07 3.10196e+07 3.23981e+07 3.39068e+07 3.42031e+07 3.44311e+07 3.48831e+07 2.98265e+07 2.98882e+07 3.00558e+07
          3.04136e+07 3.06672e+07 3.07412e+07 3.08882e+07 3.10096e+07 3.11559e+07 3.13301e+07 3.29312e+07 3.43501e+07 3.46804e+07 3.48849e+07 3.51855e+07
        </DataArray>
        <DataArray type="Float32" Name="pressure[2]" NumberOfComponents="1" format="ascii">
          2.10679e+07 2.10825e+07 2.17429e+07 2.24241e+07 2.2809e+07 2.32239e+07 2.33528e+07 2.34007e+07 2.34592e+07 2.35235e+07 2.3699e+07 2.39894e+07
          2.42045e+07 2.48012e+07 2.55283e+07 2.11124e+07 2.11267e+07 2.18562e+07 2.25732e+07 2.29908e+07 2.34033e+07 2.34975e+07 2.35348e+07 2.35948e+07
          2.36667e+07 2.39089e+07 2.42022e+07 2.43782e+07 2.49958e+07 2.56938e+07 2.1188e+07 2.12293e+07 2.19566e+07 2.2722e+07 2.30966e+07 2.34832e+07
          2.3596e+07 2.36499e+07 2.3727e+07 2.38241e+07 2.41498e+07 2.44816e+07 2.46595e+07 2.52354e+07 2.5902e+07 2.13122e+07 2.13583e+07 2.18214e+07
          2.28575e+07 2.32311e+07 2.36055e+07 2.37078e+07 2.37564e+07 2.38722e+07 2.40196e+07 2.44525e+07 2.48424e+07 2.50209e+07 2.55202e+07 2.616e+07
          2.14434e+07 2.14664e+07 1.98054e+07 2.29591e+07 2.34315e+07 2.38242e+07 2.389e+07 2.39257e+07 2.41062e+07 2.43739e+07 2.48214e+07 2.51915e+07
          2.53751e+07 2.58422e+07 2.64139e+07 2.16467e+07 2.16897e+07 2.23359e+07 2.35056e+07 2.38369e+07 2.40878e+07 2.41294e+07 2.41646e+07 2.43979e+07
          2.48071e+07 2.52656e+07 2.55069e+07 2.57047e+07 2.61659e+07 2.6698e+07 2.1909e+07 2.196e+07 2.30811e+07 2.39863e+07 2.41951e+07 2.43642e+07
          2.43965e+07 2.44211e+07 2.46519e+07 2.52177e+07 2.56754e+07 2.57861e+07 2.5975e+07 2.65164e+07 2.70919e+07 2.22873e+07 2.23428e+07 2.34863e+07
          2.43359e+07 2.4527e+07 2.46481e+07 2.46828e+07 2.47349e+07 2.50004e+07 2.55703e+07 2.59525e+07 2.60408e+07 2.62929e+07 2.68803e+07 2.76345e+07
          2.28381e+07 2.29018e+07 2.38246e+07 2.4615e+07 2.48351e+07 2.49305e+07 2.49902e+07 2.51749e+07 2.54852e+07 2.59974e+07 2.62485e+07 2.62904e+07
          2.65484e+07 2.72961e+07 2.8177e+07 2.35059e+07 2.36096e+07 2.41146e+07 2.47157e+07 2.50967e+07 2.5178e+07 2.53071e+07 2.5797e+07 2.60551e+07
          2.64337e+07 2.66145e+07 2.66517e+07 2.69271e+07 2.77221e+07 2.85019e+07 2.42989e+07 2.44172e+07 2.46699e+07 2.50339e+07 2.53184e+07 2.53768e+07
          2.55773e+07 2.6407e+07 2.66198e+07 2.68544e+07 2.69953e+07 2.70453e+07 2.72884e+07 2.80871e+07 2.87428e+07 2.5034e+07 2.51045e+07 2.52147e+07
          2.53966e+07 2.55448e+07 2.55683e+07 2.58457e+07 2.70464e+07 2.71734e+07 2.72961e+07 2.73915e+07 2.74551e+07 2.77097e+07 2.84625e+07 2.90013e+07
          2.55911e+07 2.56394e+07 2.56725e+07 2.58482e+07 2.59685e+07 2.59681e+07 2.68022e+07 2.7613e+07 2.76534e+07 2.77667e+07 2.78554e+07 2.79739e+07
          2.82192e+07 2.88556e+07 2.9703e+07 2.60344e+07 2.60845e+07 2.61457e+07 2.64593e+07 2.66545e+07 2.69604e+07 2.76216e+07 2.82473e+07 2.82948e+07
          2.83151e+07 2.83214e+07 2.84893e+07 2.96339e+07 3.03425e+07 3.01562e+07 2.63898e+07 2.64299e+07 2.67009e+07 2.71666e+07 2.78819e+07 2.79857e+07
          2.84134e+07 2.87991e+07 2.88496e+07 2.89192e+07 2.90498e+07 2.98952e+07 3.0687e+07 3.08674e+07 3.0711e+07 2.67126e+07 2.67628e+07 2.72582e+07
          2.78235e+07 2.85252e+07 2.86142e+07 2.89327e+07 2.91575e+07 2.92099e+07 2.9292e+07 2.96137e+07 3.0459e+07 3.1096e+07 3.14447e+07 3.12394e+07
          2.76534e+07 2.76866e+07 2.78621e+07 2.88354e+07 2.90675e+07 2.91096e+07 2.92615e+07 2.93989e+07 2.94491e+07 2.95158e+07 2.99687e+07 3.09859e+07
          3.16697e+07 3.2009e+07 3.1725e+07 2.84123e+07 2.84683e+07 2.88613e+07 2.92264e+07 2.93869e+07 2.94324e+07 2.95454e+07 2.96426e+07 2.96952e+07
          2.97555e+07 3.03196e+07 3.14012e+07 3.21015e+07 3.23742e+07 3.22107e+07 2.87593e+07 2.88275e+07 2.90765e+07 2.94602e+07 2.96568e+07 2.97057e+07
          2.98002e+07 2.98817e+07 2.99295e+07 2.99872e+07 3.06101e+07 3.18097e+07 3.25286e+07 3.27273e+07 3.28945e+07 2.90314e+07 2.90912e+07 2.93189e+07
          2.96972e+07 2.98875e+07 2.99368e+07 3.00261e+07 3.01011e+07 3.01493e+07 3.02146e+07 3.08323e+07 3.21572e+07 3.2949e+07 3.31007e+07 3.35447e+07
          2.92543e+07 2.9324e+07 2.95031e+07 2.98509e+07 3.00889e+07 3.0144e+07 3.02389e+07 3.03169e+07 3.03845e+07 3.04699e+07 3.13477e+07 3.27666e+07
          3.33372e+07 3.3499e+07 3.4048e+07 2.94662e+07 2.95392e+07 2.96972e+07 3.00362e+07 3.02786e+07 3.034e+07 3.045e+07 3.0539e+07 3.06292e+07
          3.07295e+07 3.19179e+07 3.33933e+07 3.37408e+07 3.39421e+07 3.45381e+07 2.96561e+07 2.97217e+07 2.99149e+07 3.02724e+07 3.04682e+07 3.05402e+07
          3.06702e+07 3.07738e+07 3.08924e+07 3.10196e+07 3.23981e+07 3.39068e+07 3.42031e+07 3.44311e+07 3.48831e+07 2.98265e+07 2.98882e+07 3.00558e+07
          3.04136e+07 3.06672e+07 3.07412e+07 3.08882e+07 3.10096e+07 3.11559e+07 3.13301e+07 3.29312e+07 3.43501e+07 3.46804e+07 3.48849e+07 3.51855e+07
        </DataArray>
        <DataArray type="Float32" Name="velocity[0]" NumberOfComponents="1" format="ascii">
          -1.45294e-09 4.03582e-08 1.51363e-10 -4.56905e-09 -3.75854e-10 -1.4729e-09 -5.99984e-10 1.12772e-09 1.77853e-09 -3.45806e-10 -1.81127e-09 -2.47245e-09
          -1.69876e-09 -5.87473e-10 -2.55011e-09 -2.08929e-08 1.36732e-07 3.0468e-10 -1.98073e-08 -6.35598e-11 1.53026e-09 7.47346e-09 5.21981e-09 3.89316e-09
          -2.30162e-09 -3.79616e-09 -1.06718e-08 -6.53726e-09 -1.72752e-09 -6.75803e-09 -2.61072e-08 1.8648e-07 1.05587e-09 4.91802e-10 4.05857e-10 4.41476e-09
          1.30753e-08 9.59251e-09 1.74458e-09 -5.86463e-09 -4.49363e-09 -2.68992e-08 -9.36912e-09 -3.62174e-09 -1.01261e-08 -1.31304e-08 1.86494e-07 7.38533e-09
          8.23637e-08 -1.68669e-09 -9.40063e-09 -6.9192e-09 -1.17005e-09 -4.38807e-09 -1.29121e-08 -5.71626e-09 -4.63299e-08 -6.67935e-09 -5.30471e-09 -1.38261e-08
          -9.45874e-08 -3.0154e-08 -2.86983e-10 -1.31326e-07 -1.49778e-08 -5.92089e-08 -6.63162e-08 -4.85038e-08 -6.94574e-09 -1.32223e-08 -8.09528e-09 -7.84435e-08
          -3.37363e-09 -4.86433e-09 -1.70532e-08 -1.85197e-07 -2.29664e-07 -8.30577e-09 -2.76791e-07 -3.31311e-08 -1.82929e-07 -1.03038e-07 -1.30307e-07 -4.49253e-09
          -5.83446e-09 -1.22669e-08 -1.14067e-07 -1.98594e-09 -3.87907e-09 -1.92251e-08 -1.8528e-07 -1.98828e-07 -2.43549e-09 -9.24289e-08 -3.28947e-08 -3.49226e-07
          -9.50809e-08 -1.55824e-07 -3.85106e-09 -2.59892e-09 -1.51829e-08 -1.39175e-07 -1.74158e-09 -3.83556e-09 -2.07321e-08 -1.67481e-07 -1.81444e-07 -1.96187e-09
          -1.6353e-08 -2.13335e-08 -4.4276e-07 -6.51856e-08 -1.61641e-07 -4.75296e-09 -2.31537e-09 -1.75886e-08 -1.58158e-07 -1.46836e-09 -3.97742e-09 -2.24333e-08
          -1.50158e-07 -1.62622e-07 -2.30673e-09 -2.42698e-09 -1.42486e-08 -4.4607e-07 -2.49848e-08 -2.37706e-07 -4.6684e-09 -2.81044e-09 -3.05481e-08 -1.55884e-07
          -1.44822e-09 -3.64647e-09 -2.46732e-08 -1.22159e-07 -1.49769e-07 -8.82654e-09 -4.82066e-10 -1.02186e-08 -4.11255e-07 -8.03762e-09 -3.47651e-07 -5.02642e-09
          -3.27617e-09 -5.30584e-08 -1.35074e-07 -2.41534e-09 -3.17027e-09 -2.68901e-08 -9.03864e-08 -1.43075e-07 -1.9814e-08 -1.35535e-09 -1.02789e-08 -3.66445e-07
          -2.74135e-09 -4.34883e-07 -1.15947e-08 -4.87379e-09 -6.86489e-08 -1.12462e-07 -6.36255e-09 -3.7008e-09 -2.88503e-08 -7.26168e-08 -1.37867e-07 -2.75191e-08
          -1.29425e-09 -2.65995e-08 -3.13313e-07 -2.17297e-09 -4.14293e-07 -4.60393e-08 -9.38098e-09 -7.33722e-08 -8.31242e-08 -2.04987e-08 -6.70523e-09 -3.08709e-08
          -6.66055e-08 -1.4079e-07 -2.50672e-08 -2.98047e-09 -5.14963e-08 -2.43265e-07 -2.39075e-09 -4.01516e-07 -6.95704e-08 -2.12219e-08 -6.67276e-08 -4.1532e-08
          -3.3492e-08 -1.88014e-08 -3.33162e-08 -6.47873e-08 -1.47508e-07 -1.52021e-08 -6.50716e-09 -4.92242e-08 -2.15205e-07 -2.19869e-09 -4.4551e-07 -8.20478e-08
          -2.77226e-08 -4.04571e-08 -1.26273e-08 -3.58098e-08 -3.61636e-08 -3.35531e-08 -6.78141e-08 -1.31779e-07 -9.39729e-09 -1.00916e-08 -3.60815e-08 -2.30252e-07
          -1.73053e-09 -4.45925e-07 -1.02101e-07 -2.75368e-08 -1.92191e-08 -5.93035e-09 -3.6465e-08 -5.07783e-08 -3.05284e-08 -7.015e-08 -9.50112e-08 -9.46737e-09
          -1.07431e-08 -4.07766e-08 -2.42575e-07 -2.10741e-09 -3.91502e-07 -1.07112e-07 -3.2734e-08 -1.08131e-08 -6.49888e-09 -4.14638e-08 -7.14752e-08 -2.59528e-08
          -6.98774e-08 -6.38568e-08 -8.90543e-09 -9.51402e-09 -5.98652e-08 -2.21541e-07 -3.72134e-09 -3.14969e-07 -1.1011e-07 -5.06047e-08 -4.05768e-09 -5.76481e-09
          -3.36057e-08 -1.04446e-07 -2.07351e-08 -7.08928e-08 -4.63499e-08 -4.16853e-09 -5.5478e-09 -8.73841e-08 -1.5975e-07 -5.39409e-09 -2.45872e-07 -1.22284e-07
          -8.01662e-08 -2.82234e-09 -3.83208e-09 -2.16471e-08 -1.3571e-07 -1.6248e-08 -6.48887e-08 -3.24444e-08 -2.10021e-09 -1.75833e-09 -1.05999e-07 -1.00371e-07
          -5.65393e-09 -1.8027e-07 -1.25074e-07 -1.29827e-07 -1.64262e-09 -3.14892e-09 -2.81942e-08 -1.54735e-07 -1.42711e-08 -5.41984e-08 -2.18203e-08 -1.81008e-09
          -7.48393e-10 -1.10979e-07 -5.6254e-08 -4.68742e-09 -1.33291e-07 -8.21045e-08 -2.2965e-07 -2.91513e-09 -4.48202e-09 -4.18986e-08 -1.63912e-07 -1.54025e-08
          -4.14931e-08 -1.46569e-08 -1.581e-09 -1.76067e-10 -1.02031e-07 -2.90453e-08 -3.9983e-09 -1.05589e-07 -3.47574e-08 -3.21532e-07 -4.59347e-09 -8.26252e-09
          -5.09744e-08 -1.71171e-07 -1.77384e-08 -2.60943e-08 -7.4662e-09 -2.47931e-09 -9.45562e-10 -7.49737e-08 -1.96324e-08 -3.92888e-09 -1.01149e-07 -1.90306e-08
          -3.41408e-07 -4.19671e-09 -1.58857e-08 -5.57868e-08 -1.78587e-07 -2.2041e-08 -1.21717e-08 -2.97906e-09 -1.11301e-09 -6.21751e-10 -3.73547e-08 -1.46605e-08
          -3.24546e-09 -1.07968e-07 -1.54375e-08 -2.94937e-07 -5.82773e-09 -2.73954e-08 -7.31062e-08 -1.85995e-07 -2.88036e-08 -3.22224e-09 -6.69569e-10 2.50567e-10
          9.71527e-11 -8.82729e-09 -5.59867e-09 -1.19232e-09 -5.52679e-08 -7.20804e-09 -1.27673e-07 -3.84554e-09 -1.66199e-08 -4.36402e-08 -9.55747e-08 -1.61771e-08
        </DataArray>
        <DataArray type="Float32" Name="velocity[1]" NumberOfComponents="1" format="ascii">
          2.25804e-25 6.41628e-24 1.09333e-25 -7.10084e-25 5.84122e-26 0 9.32446e-26 -1.2353e-25 7.68601e-26 5.39986e-24 -3.54004e-24 5.28465e-26
          2.29552e-24 -8.93385e-25 3.95342e-25 2.79539e-24 8.58826e-24 1.02457e-25 -1.65812e-24 -2.07127e-25 7.30264e-24 1.0629e-24 2.55157e-25 -6.90479e-24
          -1.83134e-25 0 -5.17401e-26 5.28246e-26 2.8556e-27 2.57643e-25 -1.98501e-24 -1.17945e-23 -1.83642e-24 4.81284e-24 -2.2526e-25 0
          3.76671e-25 -2.76813e-25 -3.86147e-25 0 6.68732e-24 -1.04331e-23 0 1.06359e-24 -2.66009e-25 -1.59894e-26 1.30486e-23 -1.63291e-24
          -8.07332e-24 4.23823e-25 1.03445e-23 -2.05533e-23 2.50749e-23 -3.65525e-24 1.12835e-24 3.25326e-24 -4.299e-24 2.95285e-24 -1.23716e-24 9.27776e-25
          -1.23962e-25 -6.92921e-23 6.41498e-24 1.19063e-23 -4.83998e-25 -6.1736e-24 1.59041e-25 -1.15896e-25 -2.45497e-26 -6.04718e-24 3.95389e-24 -7.20571e-24
          -2.15179e-28 1.21376e-25 -1.42128e-24 -1.62658e-25 7.27955e-24 -6.84806e-25 8.08641e-24 2.08927e-25 -1.3862e-23 0 -1.52955e-25 2.80767e-26
          4.03529e-25 -3.88083e-25 5.32318e-24 -1.36776e-24 8.09034e-25 1.42109e-24 -1.19302e-24 1.41367e-24 0 1.04825e-23 -9.41477e-25 -3.14094e-23
          -1.54758e-25 -1.30257e-25 -3.2e-24 5.23171e-28 -2.78075e-28 -6.29287e-28 3.42195e-26 -5.90811e-29 -1.56654e-24 -2.02222e-25 1.32926e-23 1.53401e-24
          3.2623e-24 -9.9572e-26 3.15121e-23 -1.2788e-25 -5.63563e-26 -5.76986e-26 -5.45542e-26 -3.59498e-24 -1.1898e-23 -9.72502e-29 -3.4833e-25 1.83092e-24
          -1.5053e-24 -9.38061e-24 -9.49672e-26 -1.97507e-24 -3.86281e-25 4.99242e-24 0 0 -9.63713e-25 2.22266e-28 1.11476e-24 2.66924e-24
          -1.39166e-28 4.85999e-26 2.53161e-29 -1.10161e-23 8.83193e-25 1.38245e-24 -9.99959e-26 -2.24656e-24 6.41417e-24 -1.1913e-23 9.45513e-24 9.95568e-25
          -4.96853e-26 -9.11454e-25 2.86917e-24 -7.95325e-25 0 -2.00358e-24 4.35097e-24 8.48094e-26 7.22609e-25 -1.25537e-25 1.71178e-24 -4.72634e-28
          -8.15675e-24 8.21528e-24 9.24323e-25 1.98663e-25 6.48155e-25 7.91418e-24 2.00583e-24 -2.65368e-25 1.32684e-25 -5.20715e-24 8.08107e-25 -4.76572e-25
          -6.068e-26 1.62667e-24 -2.17781e-23 4.5073e-26 -7.30162e-24 -4.44339e-24 -5.01633e-25 -9.60626e-25 3.84928e-24 -1.80415e-24 1.06323e-24 -1.8133e-25
          5.1448e-24 1.05196e-23 0 -2.30132e-25 1.57701e-24 5.73873e-24 -1.06476e-26 5.32149e-24 7.72114e-25 1.70289e-28 -4.61718e-24 -1.46762e-24
          3.58301e-25 -7.00795e-25 -7.46927e-29 -2.19533e-25 -6.79999e-28 7.32277e-25 -6.43001e-25 8.81985e-27 1.27837e-23 -1.62882e-26 1.52075e-24 3.09067e-24
          2.8932e-24 4.61717e-24 3.34649e-24 -4.91799e-24 4.11984e-29 -2.52633e-24 -4.9256e-24 -8.91896e-24 1.62708e-27 6.64624e-25 -1.08859e-25 -1.68316e-27
          -5.41358e-26 -5.04669e-24 1.59789e-24 0 0 4.94809e-25 4.07632e-24 -4.77092e-25 4.74459e-24 0 3.07034e-24 0
          -7.65885e-25 8.41572e-25 -1.00818e-27 1.12707e-25 -7.00463e-24 8.01377e-28 5.45966e-28 2.36775e-28 4.41352e-24 -1.85606e-28 -1.31768e-24 -2.21807e-24
          -3.58549e-28 1.77192e-24 9.5946e-28 5.15955e-26 2.12923e-24 -1.11453e-23 0 -1.16727e-23 0 -5.11651e-28 3.2353e-24 -4.0116e-24
          -1.89766e-24 2.49781e-28 1.40734e-24 0 4.07633e-24 0 7.13181e-25 2.2525e-24 5.25007e-24 1.20544e-25 -5.84883e-24 -5.39352e-24
          -2.32535e-24 1.89677e-25 6.02565e-26 6.03846e-29 -1.85657e-24 -1.1178e-24 4.63906e-24 -2.29087e-24 2.55083e-24 -2.13569e-24 7.45152e-25 9.72747e-24
          -8.01987e-26 -4.34625e-24 1.04011e-23 5.81546e-24 -3.50109e-24 7.61234e-26 9.78466e-25 -4.65555e-28 1.1001e-24 6.44551e-28 -4.19677e-24 9.10838e-25
          -1.94275e-24 5.83104e-26 -3.00249e-24 -1.3873e-25 -5.90971e-24 -5.31598e-24 1.01216e-23 2.86283e-25 3.75015e-24 1.15134e-24 -3.8749e-25 -9.06566e-25
          -1.11952e-24 6.75034e-25 0 -4.18178e-26 -1.42018e-24 4.94706e-24 -8.69446e-24 8.6971e-24 -6.1442e-24 6.4209e-28 0 0
          2.59218e-25 -7.42195e-28 1.46313e-24 -1.27365e-24 -1.34177e-24 1.236e-24 -2.07837e-24 -9.0805e-25 -1.40702e-24 2.51241e-26 6.60366e-25 -4.02319e-24
          1.43365e-23 -2.72421e-25 -6.8472e-24 4.88283e-25 9.99373e-25 -6.01034e-29 -8.89351e-25 -7.70323e-28 -8.59193e-28 1.24331e-25 -3.06256e-24 5.39507e-25
          -1.33779e-25 1.09688e-23 -4.53887e-24 0 -2.89586e-25 -9.07939e-25 6.96715e-24 -8.02007e-25 0 -5.01518e-25 -7.90593e-28 -4.09099e-25
          6.92475e-25 -1.37085e-24 -2.31361e-24 -3.7312e-25 -2.83131e-24 1.12021e-24 -3.10828e-23 0 3.10994e-23 -2.28275e-23 1.88731e-23 4.74571e-25
        </DataArray>
        <DataArray type="Float32" Name="velocity[2]" NumberOfComponents="1" format="ascii">
          -1.4991e-10 5.35754e-09 -3.65594e-09 -4.16698e-09 -3.09349e-09 -3.12564e-09 -2.83825e-09 -2.52201e-09 -2.50548e-09 -2.92107e-09 -2.99812e-09 -2.80063e-09
          -2.35156e-09 -1.90978e-09 -1.3018e-09 -2.4698e-09 2.37759e-08 -2.98682e-09 -5.89927e-09 -1.84312e-09 -1.74369e-09 -1.08999e-09 -1.7726e-09 -2.06757e-09
          -3.06276e-09 -3.1981e-09 -4.00668e-09 -2.68207e-09 -1.50681e-09 -1.74518e-09 -5.4341e-09 3.154e-08 -8.5262e-10 -2.46502e-09 -3.92224e-09 -3.05221e-09
          -1.3189e-09 -1.86146e-09 -3.09311e-09 -4.14956e-09 -3.7394e-09 -6.97547e-09 -3.23664e-09 -2.00329e-09 -2.35587e-09 -2.30813e-09 3.25784e-08 2.60451e-10
          1.05637e-08 -6.58845e-09 -7.18574e-09 -5.66889e-09 -3.84753e-09 -3.82542e-09 -4.84283e-09 -3.27259e-09 -9.82768e-09 -2.45979e-09 -2.31903e-09 -3.10092e-09
          -1.11816e-08 1.44624e-09 -1.0957e-09 -3.16101e-08 -1.42327e-08 -1.95363e-08 -1.78257e-08 -1.25673e-08 -4.30965e-09 -5.60669e-09 -4.75799e-09 -1.56649e-08
          -1.09815e-09 -1.55268e-09 -3.4196e-09 -3.19901e-08 -4.02727e-08 -2.74163e-09 -5.63105e-08 -1.87462e-08 -4.06386e-08 -2.25858e-08 -2.62502e-08 -2.84127e-09
          -3.22806e-09 -4.3083e-09 -2.13545e-08 -8.7519e-10 -1.2737e-09 -3.7018e-09 -3.31828e-08 -3.63703e-08 -2.02696e-09 -2.11024e-08 -1.4134e-08 -6.64034e-08
          -1.77881e-08 -2.90723e-08 -2.74185e-09 -2.47277e-09 -4.68988e-09 -2.57665e-08 -7.57276e-10 -1.0851e-09 -3.84677e-09 -3.00412e-08 -3.34166e-08 -2.11461e-09
          -5.10198e-09 -6.69828e-09 -8.05289e-08 -1.39749e-08 -3.09716e-08 -2.56785e-09 -2.11284e-09 -4.66645e-09 -2.8949e-08 -9.73121e-10 -1.45134e-09 -4.33223e-09
          -2.6946e-08 -2.99696e-08 -2.00609e-09 -2.09804e-09 -4.43846e-09 -8.11689e-08 -7.73276e-09 -4.42585e-08 -1.87929e-09 -1.56149e-09 -5.75034e-09 -2.76668e-08
          -9.23158e-10 -1.3313e-09 -4.72016e-09 -2.27784e-08 -2.90004e-08 -3.68068e-09 -1.54506e-09 -3.26197e-09 -7.5215e-08 -5.3874e-09 -6.37684e-08 -1.69229e-09
          -1.33336e-09 -9.36842e-09 -2.38333e-08 -1.14122e-09 -1.26868e-09 -5.11011e-09 -1.67258e-08 -2.69117e-08 -4.87863e-09 -1.23136e-09 -2.7332e-09 -6.63885e-08
          -3.21441e-09 -7.87333e-08 -3.03186e-09 -1.43881e-09 -1.23762e-08 -2.0468e-08 -2.1523e-09 -1.33726e-09 -5.37185e-09 -1.31767e-08 -2.51845e-08 -5.59117e-09
          -6.9181e-10 -4.35906e-09 -5.5675e-08 -2.34663e-09 -7.62621e-08 -1.08696e-08 -2.56637e-09 -1.36789e-08 -1.64931e-08 -5.87451e-09 -2.34508e-09 -5.83249e-09
          -1.17721e-08 -2.46084e-08 -4.4088e-09 -9.21805e-10 -8.86223e-09 -4.38605e-08 -3.11512e-09 -7.25832e-08 -1.3435e-08 -4.86325e-09 -1.30059e-08 -1.03847e-08
          -1.01714e-08 -5.79548e-09 -6.29758e-09 -1.15166e-08 -2.6131e-08 -3.12048e-09 -1.8665e-09 -9.96261e-09 -3.94746e-08 -1.50969e-09 -7.94081e-08 -1.40221e-08
          -3.48248e-09 -7.01323e-09 -3.68341e-09 -8.14538e-09 -6.9444e-09 -5.569e-09 -1.16624e-08 -2.34969e-08 -2.89406e-09 -3.0668e-09 -7.61184e-09 -4.16032e-08
          -1.03121e-09 -7.96162e-08 -1.90813e-08 -5.70024e-09 -4.3011e-09 -2.12858e-09 -7.49616e-09 -8.80387e-09 -4.72227e-09 -1.25101e-08 -1.80224e-08 -3.79533e-09
          -3.93437e-09 -8.98793e-09 -4.39958e-08 -1.28571e-09 -7.11318e-08 -2.20425e-08 -8.65243e-09 -5.04461e-09 -4.61183e-09 -1.04245e-08 -1.3149e-08 -3.71143e-09
          -1.21998e-08 -1.15863e-08 -2.64738e-09 -2.95304e-09 -1.11194e-08 -4.01692e-08 -3.00752e-09 -5.87063e-08 -2.33865e-08 -1.22785e-08 -3.52972e-09 -3.97475e-09
          -9.80234e-09 -1.98875e-08 -2.78126e-09 -1.25554e-08 -8.58791e-09 -1.68645e-09 -2.34221e-09 -1.62119e-08 -2.9844e-08 -4.22895e-09 -4.76001e-08 -2.61254e-08
          -1.74065e-08 -3.20848e-09 -3.43686e-09 -6.57315e-09 -2.46784e-08 -2.24371e-09 -1.1786e-08 -6.80235e-09 -1.79319e-09 -1.69081e-09 -1.98253e-08 -1.9736e-08
          -4.20669e-09 -3.57573e-08 -2.72971e-08 -2.72742e-08 -3.31939e-09 -3.65053e-09 -7.67649e-09 -2.83894e-08 -2.47826e-09 -9.92224e-09 -4.72229e-09 -1.41178e-09
          -1.34419e-09 -2.08145e-08 -1.20561e-08 -3.87643e-09 -2.70726e-08 -2.06055e-08 -4.60694e-08 -3.36675e-09 -3.41701e-09 -9.4115e-09 -3.00829e-08 -3.1309e-09
          -7.79714e-09 -3.76297e-09 -1.61879e-09 -1.30171e-09 -1.97363e-08 -7.72342e-09 -3.68281e-09 -2.18352e-08 -1.03665e-08 -6.06536e-08 -3.70678e-09 -4.24664e-09
          -1.15495e-08 -3.17716e-08 -3.49136e-09 -5.14794e-09 -2.55246e-09 -1.79472e-09 -1.47905e-09 -1.54644e-08 -6.73268e-09 -4.0299e-09 -2.10553e-08 -6.61625e-09
          -6.38916e-08 -4.71935e-09 -6.45505e-09 -1.29412e-08 -3.40088e-08 -4.95729e-09 -2.52841e-09 -1.37181e-09 -1.26538e-09 -1.36033e-09 -8.92976e-09 -6.141e-09
          -4.31331e-09 -2.2734e-08 -6.41085e-09 -5.73406e-08 -7.82557e-09 -1.11593e-08 -1.79237e-08 -3.60244e-08 -6.26268e-09 -7.83324e-10 -5.8207e-10 -4.32329e-10
          -4.33705e-10 -2.47407e-09 -2.63756e-09 -2.15425e-09 -1.31954e-08 -6.62724e-09 -3.34075e-08 -1.43323e-08 -1.25582e-08 -1.43331e-08 -2.00263e-08 -3.3615e-09
        </DataArray>
        <DataArray type="Float32" Name="z[0]" NumberOfComponents="1" format="ascii">
          0.150578 0.150579 0.15058 0.150582 0.150582 0.150583 0.150584 0.150585 0.150585 0.150586 0.150587 0.150588
          0.150589 0.150591 0.150596 0.150581 0.150582 0.150583 0.150585 0.150586 0.150587 0.150587 0.150588 0.150588
          0.150589 0.15059 0.150591 0.150593 0.150595 0.150599 0.150584 0.150585 0.150587 0.150588 0.150589 0.15059
          0.15059 0.150591 0.150592 0.150593 0.150593 0.150595 0.150596 0.150598 0.150602 0.150588 0.150589 0.15059
          0.150591 0.150592 0.150593 0.150594 0.150594 0.150595 0.150596 0.150597 0.150598 0.150599 0.150601 0.150605
          0.150591 0.150592 0.150593 0.150594 0.150595 0.150596 0.150597 0.150597 0.150598 0.150599 0.1506 0.150601
          0.150602 0.150604 0.150609 0.150594 0.150595 0.150596 0.150597 0.150598 0.150599 0.1506 0.1506 0.150601
          0.150602 0.150603 0.150604 0.150605 0.150607 0.150612 0.150597 0.150598 0.150599 0.150601 0.150601 0.150602