<?xml version="1.0"?>
<VTKFile type="UnstructuredGrid" version="0.1" byte_order="LittleEndian">
  <UnstructuredGrid>
    <Piece NumberOfCells="360" NumberOfPoints="800">
      <CellData Scalars="pressure[0]">
        <DataArray type="Float32" Name="pressure[0]" NumberOfComponents="1" format="ascii">
          2.10082e+07 2.10228e+07 2.15803e+07 2.21621e+07 2.25322e+07 2.29636e+07 2.30994e+07 2.31497e+07 2.32104e+07 2.32786e+07 2.34776e+07 2.38062e+07
          2.40502e+07 2.46954e+07 2.54586e+07 2.10523e+07 2.10668e+07 2.16833e+07 2.22936e+07 2.27025e+07 2.31405e+07 2.32403e+07 2.32798e+07 2.33426e+07
          2.34206e+07 2.36988e+07 2.40316e+07 2.42283e+07 2.489e+07 2.56258e+07 2.10971e+07 2.11109e+07 2.17529e+07 2.24364e+07 2.27963e+07 2.32059e+07
          2.33262e+07 2.33852e+07 2.34681e+07 2.3578e+07 2.39555e+07 2.43349e+07 2.45276e+07 2.51376e+07 2.58388e+07 2.11564e+07 2.11972e+07 2.16193e+07
          2.257e+07 2.29158e+07 2.33056e+07 2.34145e+07 2.34684e+07 2.36007e+07 2.37784e+07 2.4285e+07 2.47145e+07 2.4903e+07 2.54327e+07 2.61053e+07
          2.12865e+07 2.13106e+07 1.97946e+07 2.26701e+07 2.30936e+07 2.35046e+07 2.35751e+07 2.3612e+07 2.38325e+07 2.41759e+07 2.46781e+07 2.50768e+07
          2.52714e+07 2.57676e+07 2.63674e+07 2.14865e+07 2.15295e+07 2.20991e+07 2.31718e+07 2.34862e+07 2.37578e+07 2.38002e+07 2.38315e+07 2.4135e+07
          2.4627e+07 2.51406e+07 2.54052e+07 2.56148e+07 2.61045e+07 2.6662e+07 2.1743e+07 2.17932e+07 2.27595e+07 2.36656e+07 2.38776e+07 2.40611e+07
          2.40988e+07 2.41752e+07 2.44438e+07 2.50723e+07 2.55787e+07 2.56964e+07 2.58956e+07 2.64702e+07 2.70745e+07 2.21121e+07 2.21661e+07 2.32467e+07
          2.40485e+07 2.4236e+07 2.43622e+07 2.44734e+07 2.45755e+07 2.48607e+07 2.54666e+07 2.5871e+07 2.59617e+07 2.62277e+07 2.68498e+07 2.76468e+07
          2.26512e+07 2.27136e+07 2.36506e+07 2.44262e+07 2.46531e+07 2.48988e+07 2.50548e+07 2.52194e+07 2.54883e+07 2.59531e+07 2.61834e+07 2.62211e+07
          2.6492e+07 2.72828e+07 2.82192e+07 2.33069e+07 2.34103e+07 2.40061e+07 2.46622e+07 2.50979e+07 2.53612e+07 2.56805e+07 2.60047e+07 2.61795e+07
          2.64376e+07 2.65671e+07 2.65991e+07 2.68833e+07 2.77204e+07 2.85577e+07 2.42299e+07 2.437e+07 2.46359e+07 2.51191e+07 2.55103e+07 2.56929e+07
          2.61751e+07 2.66483e+07 2.67874e+07 2.68957e+07 2.69616e+07 2.70044e+07 2.7239e+07 2.80808e+07 2.88062e+07 2.49373e+07 2.50168e+07 2.51595e+07
          2.55487e+07 2.58879e+07 2.60127e+07 2.66557e+07 2.7259e+07 2.73049e+07 2.73477e+07 2.73719e+07 2.74133e+07 2.7615e+07 2.84416e+07 2.90869e+07
          2.54458e+07 2.55028e+07 2.55828e+07 2.59595e+07 2.63089e+07 2.6563e+07 2.72731e+07 2.79046e+07 2.79944e+07 2.78496e+07 2.78588e+07 2.79192e+07
          2.86218e+07 2.96967e+07 2.98986e+07 2.58306e+07 2.58896e+07 2.60503e+07 2.64627e+07 2.74152e+07 2.75374e+07 2.81053e+07 2.85496e+07 2.86079e+07
          2.85896e+07 2.84225e+07 2.90814e+07 3.00047e+07 3.06475e+07 3.03539e+07 2.66921e+07 2.67003e+07 2.69007e+07 2.73738e+07 2.83571e+07 2.84451e+07
          2.8813e+07 2.90873e+07 2.9138e+07 2.92091e+07 2.93321e+07 3.02153e+07 3.09162e+07 3.11024e+07 3.09015e+07 2.74536e+07 2.74799e+07 2.76869e+07
          2.86546e+07 2.89452e+07 2.9005e+07 2.92635e+07 2.94336e+07 2.94845e+07 2.95625e+07 2.98749e+07 3.06892e+07 3.12964e+07 3.16291e+07 3.14162e+07
          2.82205e+07 2.82592e+07 2.83721e+07 2.92383e+07 2.94004e+07 2.94387e+07 2.9565e+07 2.96774e+07 2.97265e+07 2.97919e+07 3.02221e+07 3.11858e+07
          3.18331e+07 3.21557e+07 3.18857e+07 2.88431e+07 2.89009e+07 2.92586e+07 2.95642e+07 2.96993e+07 2.97434e+07 2.98402e+07 2.99225e+07 2.99738e+07
          3.00331e+07 3.05647e+07 3.15824e+07 3.22423e+07 3.25039e+07 3.23532e+07 2.91641e+07 2.92304e+07 2.94531e+07 2.97852e+07 2.99572e+07 3.0005e+07
          3.00888e+07 3.01603e+07 3.02071e+07 3.0264e+07 3.08489e+07 3.19736e+07 3.26491e+07 3.28418e+07 3.30043e+07 2.94203e+07 2.94791e+07 2.96824e+07
          3.00128e+07 3.01813e+07 3.02296e+07 3.03105e+07 3.03778e+07 3.0425e+07 3.04888e+07 3.10681e+07 3.23076e+07 3.305e+07 3.31989e+07 3.36227e+07
          2.96342e+07 2.97015e+07 2.98636e+07 3.01694e+07 3.03794e+07 3.04332e+07 3.05205e+07 3.0592e+07 3.06567e+07 3.07389e+07 3.15598e+07 3.28854e+07
          3.34211e+07 3.35791e+07 3.41023e+07 2.98388e+07 2.99089e+07 3.00533e+07 3.03526e+07 3.0567e+07 3.06267e+07 3.07289e+07 3.08113e+07 3.08969e+07
          3.09924e+07 3.21017e+07 3.34788e+07 3.38064e+07 3.40011e+07 3.45692e+07 3.00245e+07 3.00883e+07 3.02632e+07 3.05795e+07 3.07546e+07 3.08241e+07
          3.09452e+07 3.10416e+07 3.11536e+07 3.12741e+07 3.25594e+07 3.39666e+07 3.42462e+07 3.44657e+07 3.49009e+07 3.01934e+07 3.02539e+07 3.04071e+07
          3.0725e+07 3.09507e+07 3.10221e+07 3.11591e+07 3.1272e+07 3.141e+07 3.15744e+07 3.30662e+07 3.43893e+07 3.47004e+07 3.48979e+07 3.5193e+07
        </DataArray>
        <DataArray type="Float32" Name="pressure[1]" NumberOfComponents="1" format="ascii">
          2.10082e+07 2.10228e+07 2.15803e+07 2.21621e+07 2.25322e+07 2.29636e+07 2.30994e+07 2.31497e+07 2.32104e+07 2.32786e+07 2.34776e+07 2.38062e+07
          2.40502e+07 2.46954e+07 2.54586e+07 2.10523e+07 2.10668e+07 2.16833e+07 2.22936e+07 2.27025e+07 2.31405e+07 2.32403e+07 2.32798e+07 2.33426e+07
          2.34206e+07 2.36988e+07 2.40316e+07 2.42283e+07 2.489e+07 2.56258e+07 2.10971e+07 2.11109e+07 2.17529e+07 2.24364e+07 2.27963e+07 2.32059e+07
          2.33262e+07 2.33852e+07 2.34681e+07 2.3578e+07 2.39555e+07 2.43349e+07 2.45276e+07 2.51376e+07 2.58388e+07 2.11564e+07 2.11972e+07 2.16193e+07
          2.257e+07 2.29158e+07 2.33056e+07 2.34145e+07 2.34684e+07 2.36007e+07 2.37784e+07 2.4285e+07 2.47145e+07 2.4903e+07 2.54327e+07 2.61053e+07
          2.12865e+07 2.13106e+07 1.97946e+07 2.26701e+07 2.30936e+07 2.35046e+07 2.35751e+07 2.3612e+07 2.38325e+07 2.41759e+07 2.46781e+07 2.50768e+07
          2.52714e+07 2.57676e+07 2.63674e+07 2.14865e+07 2.15295e+07 2.20991e+07 2.31718e+07 2.34862e+07 2.37578e+07 2.38002e+07 2.38315e+07 2.4135e+07
          2.4627e+07 2.51406e+07 2.54052e+07 2.56148e+07 2.61045e+07 2.6662e+07 2.1743e+07 2.17932e+07 2.27595e+07 2.36656e+07 2.38776e+07 2.40611e+07
          2.40988e+07 2.41752e+07 2.44438e+07 2.50723e+07 2.55787e+07 2.56964e+07 2.58956e+07 2.64702e+07 2.70745e+07 2.21121e+07 2.21661e+07 2.32467e+07
          2.40485e+07 2.4236e+07 2.43622e+07 2.44734e+07 2.45755e+07 2.48607e+07 2.54666e+07 2.5871e+07 2.59617e+07 2.62277e+07 2.68498e+07 2.76468e+07
          2.26512e+07 2.27136e+07 2.36506e+07 2.44262e+07 2.46531e+07 2.48988e+07 2.50548e+07 2.52194e+07 2.54883e+07 2.59531e+07 2.61834e+07 2.62211e+07
          2.6492e+07 2.72828e+07 2.82192e+07 2.33069e+07 2.34103e+07 2.40061e+07 2.46622e+07 2.50979e+07 2.53612e+07 2.56805e+07 2.60047e+07 2.61795e+07
          2.64376e+07 2.65671e+07 2.65991e+07 2.68833e+07 2.77204e+07 2.85577e+07 2.42299e+07 2.437e+07 2.46359e+07 2.51191e+07 2.55103e+07 2.56929e+07
          2.61751e+07 2.66483e+07 2.67874e+07 2.68957e+07 2.69616e+07 2.70044e+07 2.7239e+07 2.80808e+07 2.88062e+07 2.49373e+07 2.50168e+07 2.51595e+07
          2.55487e+07 2.58879e+07 2.60127e+07 2.66557e+07 2.7259e+07 2.73049e+07 2.73477e+07 2.73719e+07 2.74133e+07 2.7615e+07 2.84416e+07 2.90869e+07
          2.54458e+07 2.55028e+07 2.55828e+07 2.59595e+07 2.63089e+07 2.6563e+07 2.72731e+07 2.79046e+07 2.79944e+07 2.78496e+07 2.78588e+07 2.79192e+07
          2.86218e+07 2.96967e+07 2.98986e+07 2.58306e+07 2.58896e+07 2.60503e+07 2.64627e+07 2.74152e+07 2.75374e+07 2.81053e+07 2.85496e+07 2.86079e+07
          2.85896e+07 2.84225e+07 2.90814e+07 3.00047e+07 3.06475e+07 3.03539e+07 2.66921e+07 2.67003e+07 2.69007e+07 2.73738e+07 2.83571e+07 2.84451e+07
          2.8813e+07 2.90873e+07 2.9138e+07 2.92091e+07 2.93321e+07 3.02153e+07 3.09162e+07 3.11024e+07 3.09015e+07 2.74536e+07 2.74799e+07 2.76869e+07
          2.86546e+07 2.89452e+07 2.9005e+07 2.92635e+07 2.94336e+07 2.94845e+07 2.95625e+07 2.98749e+07 3.06892e+07 3.12964e+07 3.16291e+07 3.14162e+07
          2.82205e+07 2.82592e+07 2.83721e+07 2.92383e+07 2.94004e+07 2.94387e+07 2.9565e+07 2.96774e+07 2.97265e+07 2.97919e+07 3.02221e+07 3.11858e+07
          3.18331e+07 3.21557e+07 3.18857e+07 2.88431e+07 2.89009e+07 2.92586e+07 2.95642e+07 2.96993e+07 2.97434e+07 2.98402e+07 2.99225e+07 2.99738e+07
          3.00331e+07 3.05647e+07 3.15824e+07 3.22423e+07 3.25039e+07 3.23532e+07 2.91641e+07 2.92304e+07 2.94531e+07 2.97852e+07 2.99572e+07 3.0005e+07
          3.00888e+07 3.01603e+07 3.02071e+07 3.0264e+07 3.08489e+07 3.19736e+07 3.26491e+07 3.28418e+07 3.30043e+07 2.94203e+07 2.94791e+07 2.96824e+07
          3.00128e+07 3.01813e+07 3.02296e+07 3.03105e+07 3.03778e+07 3.0425e+07 3.04888e+07 3.10681e+07 3.23076e+07 3.305e+07 3.31989e+07 3.36227e+07
          2.96342e+07 2.97015e+07 2.98636e+07 3.01694e+07 3.03794e+07 3.04332e+07 3.05205e+07 3.0592e+07 3.06567e+07 3.07389e+07 3.15598e+07 3.28854e+07
          3.34211e+07 3.35791e+07 3.41023e+07 2.98388e+07 2.99089e+07 3.00533e+07 3.03526e+07 3.0567e+07 3.06267e+07 3.07289e+07 3.08113e+07 3.08969e+07
          3.09924e+07 3.21017e+07 3.34788e+07 3.38064e+07 3.40011e+07 3.45692e+07 3.00245e+07 3.00883e+07 3.02632e+07 3.05795e+07 3.07546e+07 3.08241e+07
          3.09452e+07 3.10416e+07 3.11536e+07 3.12741e+07 3.25594e+07 3.39666e+07 3.42462e+07 3.44657e+07 3.49009e+07 3.01934e+07 3.02539e+07 3.04071e+07
          3.0725e+07 3.09507e+07 3.10221e+07 3.11591e+07 3.1272e+07 3.141e+07 3.15744e+07 3.30662e+07 3.43893e+07 3.47004e+07 3.48979e+07 3.5193e+07
        </DataArray>
        <DataArray type="Float32" Name="pressure[2]" NumberOfComponents="1" format="ascii">
          2.10082e+07 2.10228e+07 2.15803e+07 2.21621e+07 2.25322e+07 2.29636e+07 2.30994e+07 2.31497e+07 2.32104e+07 2.32786e+07 2.34776e+07 2.38062e+07
          2.40502e+07 2.46954e+07 2.54586e+07 2.10523e+07 2.10668e+07 2.16833e+07 2.22936e+07 2.27025e+07 2.31405e+07 2.32403e+07 2.32798e+07 2.33426e+07
          2.34206e+07 2.36988e+07 2.40316e+07 2.42283e+07 2.489e+07 2.56258e+07 2.10971e+07 2.11109e+07 2.17529e+07 2.24364e+07 2.27963e+07 2.32059e+07
          2.33262e+07 2.33852e+07 2.34681e+07 2.3578e+07 2.39555e+07 2.43349e+07 2.45276e+07 2.51376e+07 2.58388e+07 2.11564e+07 2.11972e+07 2.16193e+07
          2.257e+07 2.29158e+07 2.33056e+07 2.34145e+07 2.34684e+07 2.36007e+07 2.37784e+07 2.4285e+07 2.47145e+07 2.4903e+07 2.54327e+07 2.61053e+07
          2.12865e+07 2.13106e+07 1.97946e+07 2.26701e+07 2.30936e+07 2.35046e+07 2.35751e+07 2.3612e+07 2.38325e+07 2.41759e+07 2.46781e+07 2.50768e+07
          2.52714e+07 2.57676e+07 2.63674e+07 2.14865e+07 2.15295e+07 2.20991e+07 2.31718e+07 2.34862e+07 2.37578e+07 2.38002e+07 2.38315e+07 2.4135e+07
          2.4627e+07 2.51406e+07 2.54052e+07 2.56148e+07 2.61045e+07 2.6662e+07 2.1743e+07 2.17932e+07 2.27595e+07 2.36656e+07 2.38776e+07 2.40611e+07
          2.40988e+07 2.41752e+07 2.44438e+07 2.50723e+07 2.55787e+07 2.56964e+07 2.58956e+07 2.64702e+07 2.70745e+07 2.21121e+07 2.21661e+07 2.32467e+07
          2.40485e+07 2.4236e+07 2.43622e+07 2.44734e+07 2.45755e+07 2.48607e+07 2.54666e+07 2.5871e+07 2.59617e+07 2.62277e+07 2.68498e+07 2.76468e+07
          2.26512e+07 2.27136e+07 2.36506e+07 2.44262e+07 2.46531e+07 2.48988e+07 2.50548e+07 2.52194e+07 2.54883e+07 2.59531e+07 2.61834e+07 2.62211e+07
          2.6492e+07 2.72828e+07 2.82192e+07 2.33069e+07 2.34103e+07 2.40061e+07 2.46622e+07 2.50979e+07 2.53612e+07 2.56805e+07 2.60047e+07 2.61795e+07
          2.64376e+07 2.65671e+07 2.65991e+07 2.68833e+07 2.77204e+07 2.85577e+07 2.42299e+07 2.437e+07 2.46359e+07 2.51191e+07 2.55103e+07 2.56929e+07
          2.61751e+07 2.66483e+07 2.67874e+07 2.68957e+07 2.69616e+07 2.70044e+07 2.7239e+07 2.80808e+07 2.88062e+07 2.49373e+07 2.50168e+07 2.51595e+07
          2.55487e+07 2.58879e+07 2.60127e+07 2.66557e+07 2.7259e+07 2.73049e+07 2.73477e+07 2.73719e+07 2.74133e+07 2.7615e+07 2.84416e+07 2.90869e+07
          2.54458e+07 2.55028e+07 2.55828e+07 2.59595e+07 2.63089e+07 2.6563e+07 2.72731e+07 2.79046e+07 2.79944e+07 2.78496e+07 2.78588e+07 2.79192e+07
          2.86218e+07 2.96967e+07 2.98986e+07 2.58306e+07 2.58896e+07 2.60503e+07 2.64627e+07 2.74152e+07 2.75374e+07 2.81053e+07 2.85496e+07 2.86079e+07
          2.85896e+07 2.84225e+07 2.90814e+07 3.00047e+07 3.06475e+07 3.03539e+07 2.66921e+07 2.67003e+07 2.69007e+07 2.73738e+07 2.83571e+07 2.84451e+07
          2.8813e+07 2.90873e+07 2.9138e+07 2.92091e+07 2.93321e+07 3.02153e+07 3.09162e+07 3.11024e+07 3.09015e+07 2.74536e+07 2.74799e+07 2.76869e+07
          2.86546e+07 2.89452e+07 2.9005e+07 2.92635e+07 2.94336e+07 2.94845e+07 2.95625e+07 2.98749e+07 3.06892e+07 3.12964e+07 3.16291e+07 3.14162e+07
          2.82205e+07 2.82592e+07 2.83721e+07 2.92383e+07 2.94004e+07 2.94387e+07 2.9565e+07 2.96774e+07 2.97265e+07 2.97919e+07 3.02221e+07 3.11858e+07
          3.18331e+07 3.21557e+07 3.18857e+07 2.88431e+07 2.89009e+07 2.92586e+07 2.95642e+07 2.96993e+07 2.97434e+07 2.98402e+07 2.99225e+07 2.99738e+07
          3.00331e+07 3.05647e+07 3.15824e+07 3.22423e+07 3.25039e+07 3.23532e+07 2.91641e+07 2.92304e+07 2.94531e+07 2.97852e+07 2.99572e+07 3.0005e+07
          3.00888e+07 3.01603e+07 3.02071e+07 3.0264e+07 3.08489e+07 3.19736e+07 3.26491e+07 3.28418e+07 3.30043e+07 2.94203e+07 2.94791e+07 2.96824e+07
          3.00128e+07 3.01813e+07 3.02296e+07 3.03105e+07 3.03778e+07 3.0425e+07 3.04888e+07 3.10681e+07 3.23076e+07 3.305e+07 3.31989e+07 3.36227e+07
          2.96342e+07 2.97015e+07 2.98636e+07 3.01694e+07 3.03794e+07 3.04332e+07 3.05205e+07 3.0592e+07 3.06567e+07 3.07389e+07 3.15598e+07 3.28854e+07
          3.34211e+07 3.35791e+07 3.41023e+07 2.98388e+07 2.99089e+07 3.00533e+07 3.03526e+07 3.0567e+07 3.06267e+07 3.07289e+07 3.08113e+07 3.08969e+07
          3.09924e+07 3.21017e+07 3.34788e+07 3.38064e+07 3.40011e+07 3.45692e+07 3.00245e+07 3.00883e+07 3.02632e+07 3.05795e+07 3.07546e+07 3.08241e+07
          3.09452e+07 3.10416e+07 3.11536e+07 3.12741e+07 3.25594e+07 3.39666e+07 3.42462e+07 3.44657e+07 3.49009e+07 3.01934e+07 3.02539e+07 3.04071e+07
          3.0725e+07 3.09507e+07 3.10221e+07 3.11591e+07 3.1272e+07 3.141e+07 3.15744e+07 3.30662e+07 3.43893e+07 3.47004e+07 3.48979e+07 3.5193e+07
        </DataArray>
        <DataArray type="Float32" Name="velocity[0]" NumberOfComponents="1" format="ascii">
          -8.55767e-10 3.31301e-08 2.44093e-10 -8.59036e-10 -2.88856e-10 -1.26338e-09 2.78252e-11 1.55411e-09 2.51083e-09 -1.27752e-10 -1.89408e-09 -2.67014e-09
          -1.79198e-09 -5.87097e-10 -2.7306e-09 -1.00018e-08 1.03953e-07 5.72446e-10 -8.99368e-09 1.21026e-10 2.06617e-09 9.45981e-09 6.43868e-09 5.78104e-09
          -1.81965e-09 -3.94765e-09 -1.13723e-08 -6.99109e-09 -1.82039e-09 -7.24684e-09 -5.81412e-08 2.0387e-07 1.21976e-09 1.36235e-08 7.64363e-10 6.03772e-09
          1.72679e-08 1.25706e-08 4.06622e-09 -5.27259e-09 -4.71999e-09 -2.84717e-08 -1.00208e-08 -3.89334e-09 -1.08695e-08 -5.38191e-08 2.12767e-07 6.74878e-09
          8.97331e-08 -7.77426e-10 -4.10531e-09 3.15455e-09 7.08703e-09 -2.64901e-09 -1.25579e-08 -6.08923e-09 -4.9158e-08 -7.11435e-09 -5.68698e-09 -1.48445e-08
          -8.75734e-08 -4.0208e-08 -2.45414e-10 -1.07455e-07 -1.33094e-08 -4.37588e-08 -4.07681e-08 -2.92821e-08 -6.23937e-09 -1.32286e-08 -8.6072e-09 -8.40454e-08
          -3.60767e-09 -5.21652e-09 -1.83128e-08 -1.74687e-07 -2.17863e-07 -7.41694e-09 -2.42975e-07 -3.07409e-08 -1.56209e-07 -8.54644e-08 -6.38943e-08 -4.96272e-09
          -6.07666e-09 -1.33472e-08 -1.23447e-07 -2.13849e-09 -4.16133e-09 -2.06488e-08 -1.76311e-07 -1.89674e-07 -2.36934e-09 -8.1726e-08 -3.18041e-08 -2.88115e-07
          -6.38279e-08 -1.03836e-07 -5.21373e-09 -3.00359e-09 -1.68442e-08 -1.51852e-07 -1.88347e-09 -4.11163e-09 -2.22702e-08 -1.61238e-07 -1.75034e-07 -2.33432e-09
          -1.86427e-08 -2.65258e-08 -3.02356e-07 -2.43217e-08 -2.09813e-07 -6.54046e-09 -2.78784e-09 -1.95124e-08 -1.72785e-07 -1.58574e-09 -4.24379e-09 -2.41012e-08
          -1.4602e-07 -1.58536e-07 -2.89967e-09 -5.19007e-09 -2.80485e-08 -2.5759e-07 -1.33827e-08 -3.1904e-07 -6.32187e-09 -3.33061e-09 -3.32345e-08 -1.68989e-07
          -1.5372e-09 -3.83865e-09 -2.65168e-08 -1.18726e-07 -1.43799e-07 -1.03545e-08 -2.17923e-09 -2.93668e-08 -2.40573e-07 -4.51485e-09 -3.91627e-07 -5.9399e-09
          -3.76e-09 -5.6552e-08 -1.43555e-07 -2.42904e-09 -3.20751e-09 -2.89317e-08 -8.68541e-08 -1.33532e-07 -2.03239e-08 -2.16029e-09 -3.10263e-08 -2.30295e-07
          -1.52377e-09 -4.41126e-07 -1.09469e-08 -5.22198e-09 -7.25117e-08 -1.15155e-07 -5.49939e-09 -3.52268e-09 -3.11299e-08 -6.68624e-08 -1.24238e-07 -2.52043e-08
          -1.36073e-09 -3.47215e-08 -2.27862e-07 -1.22576e-09 -4.64089e-07 -1.97148e-08 -9.95877e-09 -7.80446e-08 -8.00041e-08 -1.16895e-08 -6.45091e-09 -3.35048e-08
          -5.58066e-08 -1.17465e-07 -2.32249e-08 -2.35834e-09 -2.94538e-08 -2.24094e-07 -1.76653e-09 -4.84256e-07 -4.38219e-08 -1.11636e-08 -7.3175e-08 -3.45753e-08
          -2.6086e-08 -1.37861e-08 -3.48666e-08 -4.70779e-08 -1.12839e-07 -1.891e-08 -7.12971e-09 -2.34611e-08 -2.17604e-07 -1.86607e-09 -4.87808e-07 -8.25122e-08
          -1.62538e-08 -4.52425e-08 -7.79118e-09 -3.51123e-08 -2.70666e-08 -3.33769e-08 -4.75629e-08 -9.39827e-08 -1.54483e-08 -8.2569e-09 -2.93846e-08 -2.20455e-07
          -1.37175e-09 -4.66048e-07 -1.05299e-07 -2.69407e-08 -1.97766e-08 -4.48923e-09 -3.30547e-08 -4.3094e-08 -2.97023e-08 -5.66852e-08 -6.65783e-08 -1.22268e-08
          -5.04987e-09 -3.68282e-08 -2.23784e-07 -1.7554e-09 -4.03941e-07 -1.11446e-07 -3.4641e-08 -1.02759e-08 -5.57863e-09 -3.72778e-08 -6.40168e-08 -2.48467e-08
          -6.11862e-08 -4.8759e-08 -8.71879e-09 -5.51365e-09 -5.18209e-08 -1.97295e-07 -3.33229e-09 -3.2223e-07 -1.12853e-07 -5.27666e-08 -3.88998e-09 -5.30817e-09
          -3.06691e-08 -9.53728e-08 -1.96516e-08 -6.14062e-08 -3.86603e-08 -3.11697e-09 -4.09461e-09 -7.71866e-08 -1.42566e-07 -5.03137e-09 -2.46578e-07 -1.22177e-07
          -8.02082e-08 -2.69566e-09 -3.5586e-09 -1.99295e-08 -1.24822e-07 -1.52941e-08 -5.58311e-08 -2.76842e-08 -1.60945e-09 -1.49677e-09 -9.53977e-08 -9.0595e-08
          -5.29336e-09 -1.76363e-07 -1.22285e-07 -1.26175e-07 -1.5635e-09 -2.92736e-09 -2.60789e-08 -1.42762e-07 -1.33658e-08 -4.65632e-08 -1.87054e-08 -1.54241e-09
          -6.79516e-10 -1.01546e-07 -5.1486e-08 -4.41817e-09 -1.2925e-07 -7.91214e-08 -2.18569e-07 -2.73073e-09 -4.16592e-09 -3.87736e-08 -1.51466e-07 -1.43711e-08
          -3.56826e-08 -1.26008e-08 -1.38197e-09 -1.85215e-10 -9.44404e-08 -2.69111e-08 -3.78893e-09 -1.01738e-07 -3.30938e-08 -3.02982e-07 -4.28324e-09 -7.67669e-09
          -4.71582e-08 -1.58349e-07 -1.65036e-08 -2.24806e-08 -6.44208e-09 -2.15684e-09 -8.40119e-10 -6.97937e-08 -1.82816e-08 -3.69844e-09 -9.58681e-08 -1.79368e-08
          -3.20055e-07 -3.90563e-09 -1.47394e-08 -5.16283e-08 -1.65333e-07 -2.04764e-08 -1.05104e-08 -2.58345e-09 -9.74048e-10 -5.57368e-10 -3.48096e-08 -1.36223e-08
          -3.03037e-09 -1.00916e-07 -1.4437e-08 -2.75575e-07 -5.41749e-09 -2.54085e-08 -6.77463e-08 -1.72301e-07 -2.67331e-08 -2.78812e-09 -5.83553e-10 2.09823e-10
          7.46055e-11 -8.19223e-09 -5.19324e-09 -1.10814e-09 -5.13685e-08 -6.72018e-09 -1.19101e-07 -3.57408e-09 -1.54144e-08 -4.0464e-08 -8.85653e-08 -1.501e-08
        </DataArray>
        <DataArray type="Float32" Name="velocity[1]" NumberOfComponents="1" format="ascii">
          1.32996e-25 5.2418e-24 7.52193e-26 -1.33504e-25 4.48916e-26 0 -4.32436e-27 -2.05282e-25 4.96766e-26 5.69265e-24 -3.69298e-24 3.8704e-26
          2.43434e-24 -9.65842e-25 4.24232e-25 1.28841e-24 5.78e-24 6.83525e-26 -1.13072e-24 -1.82507e-25 7.25368e-24 1.27875e-24 3.73912e-25 -6.85524e-24
          -1.43784e-25 0 -3.81366e-26 4.2827e-26 1.72403e-28 2.77509e-25 6.19303e-24 -8.26801e-24 -1.58006e-24 4.64569e-24 -1.84935e-25 0
          1.83382e-25 -4.78155e-25 -3.84519e-25 0 7.05595e-24 -1.10069e-23 0 1.14261e-24 -2.85814e-25 -1.369e-23 1.97892e-23 -1.47955e-24
          -8.48692e-24 3.44686e-25 9.47955e-24 -2.14926e-23 2.47255e-23 -4.07735e-24 1.13606e-24 3.51186e-24 -4.65979e-24 3.1811e-24 -1.32979e-24 9.97001e-25
          -9.28243e-26 -6.20559e-23 5.83275e-24 1.03211e-23 -3.69116e-25 -4.88543e-24 9.11848e-26 -9.27471e-26 -4.64676e-26 -6.67744e-24 4.27683e-24 -7.85463e-24
          -1.89888e-28 1.29975e-25 -1.52639e-24 -1.27947e-25 6.83651e-24 -6.14791e-25 8.03488e-24 1.60981e-25 -1.3142e-23 0 -9.13993e-26 -3.63779e-26
          3.35452e-25 -4.64205e-25 5.60614e-24 -1.47275e-24 8.7165e-25 1.52596e-24 -1.01666e-24 1.18248e-24 0 8.50902e-24 -7.40557e-25 -2.21359e-23
          -5.64152e-26 -9.18668e-26 -3.58947e-24 4.91137e-28 -2.41612e-28 -6.27494e-28 3.69226e-26 -1.33755e-28 -1.68269e-24 -1.73785e-25 1.29334e-23 1.29496e-24
          2.97052e-24 -4.95298e-26 3.18954e-23 -3.0147e-26 -6.19903e-26 -1.40479e-25 -6.73571e-26 -3.89296e-24 -1.30004e-23 -2.0798e-28 -3.72974e-25 1.96724e-24
          -1.37829e-24 -9.33812e-24 -8.06671e-26 -1.52219e-24 2.51683e-25 4.14516e-24 0 0 -6.01677e-25 1.8517e-28 1.05604e-24 3.25015e-24
          -4.41303e-28 5.70511e-26 -1.7786e-28 -1.07476e-23 1.33418e-24 1.48975e-24 -1.07593e-25 -2.33611e-24 3.85034e-24 -7.12674e-24 5.5855e-24 6.40487e-25
          -4.9542e-26 -5.75406e-25 3.33558e-24 -8.43105e-25 0 -2.15378e-24 4.11151e-24 1.05212e-25 4.43854e-25 -2.25284e-25 2.36774e-24 1.06494e-27
          -4.48155e-24 4.22628e-24 7.33897e-25 1.77944e-25 1.58113e-25 8.43162e-24 1.81881e-24 -3.06089e-25 1.53045e-25 -4.59689e-24 1.77755e-24 -3.15843e-25
          1.81927e-26 -1.53443e-24 -1.77241e-23 2.88304e-26 1.46211e-24 -1.80548e-24 -5.58522e-25 3.14706e-25 2.82808e-24 -1.99785e-24 1.11698e-24 -2.16505e-25
          4.07569e-24 9.21191e-24 0 -1.64244e-25 -1.11043e-24 6.29684e-25 5.46824e-26 1.67945e-24 -3.11754e-24 -2.66172e-28 -5.20471e-24 -8.45126e-25
          1.68862e-24 -6.84029e-25 1.93466e-28 -8.3577e-25 9.61996e-28 1.00996e-24 -1.15423e-24 -2.19561e-28 1.60496e-23 -3.98499e-26 -1.12125e-24 3.69961e-24
          1.89769e-24 5.20531e-24 2.48582e-24 -4.67696e-24 -1.70363e-28 -2.48047e-24 -3.24015e-24 -6.11431e-24 7.50251e-30 8.42662e-25 7.41683e-25 1.40935e-27
          -3.70833e-26 -6.13688e-24 1.72493e-24 0 0 3.65715e-25 3.8358e-24 -5.13639e-25 4.61591e-24 0 1.88237e-24 0
          -3.44252e-25 4.14782e-25 1.10779e-27 9.67074e-26 -7.39431e-24 -5.13789e-28 -4.17939e-28 -5.08079e-28 4.18663e-24 -7.97964e-28 -1.23079e-24 -2.13612e-24
          2.98832e-28 8.86806e-25 9.85266e-30 -1.68373e-25 1.91469e-24 -1.03239e-23 0 -1.05867e-23 0 5.78275e-28 3.05206e-24 -3.78265e-24
          -1.71721e-24 4.45045e-28 1.32861e-24 0 3.34538e-24 0 5.12976e-25 1.74977e-24 5.01643e-24 1.1584e-25 -6.45204e-24 -5.59198e-24
          -2.14585e-24 1.82313e-25 5.30471e-26 -2.05903e-28 -1.75296e-24 -1.04828e-24 3.98458e-24 -1.96879e-24 2.16875e-24 -1.79222e-24 8.02769e-25 8.72911e-24
          -7.50863e-26 -4.46015e-24 1.02629e-23 5.4326e-24 -3.26676e-24 7.16212e-26 9.07982e-25 -6.00027e-28 1.02893e-24 -4.4123e-29 -3.59302e-24 7.77113e-25
          -1.6513e-24 3.05333e-25 -2.69891e-24 -1.2201e-25 -5.72419e-24 -5.18619e-24 9.36367e-24 2.66547e-25 3.49737e-24 1.06448e-24 -3.51985e-25 -8.53365e-25
          -9.5829e-25 5.77574e-25 0 -3.59296e-26 -1.25692e-24 4.34253e-24 -7.63624e-24 7.63578e-24 -5.61026e-24 1.57359e-27 0 0
          2.38627e-25 -7.96728e-28 1.36036e-24 -1.09347e-24 -1.14715e-24 1.06011e-24 -1.78067e-24 -9.65838e-25 -1.31007e-24 2.28964e-26 5.01736e-25 -3.65517e-24
          1.32349e-23 -2.53412e-25 -6.36751e-24 4.55634e-25 9.24229e-25 -2.63377e-28 -7.66812e-25 -1.60699e-29 3.46616e-30 1.09846e-25 -2.8634e-24 5.02785e-25
          -1.26518e-25 9.97181e-24 -4.15142e-24 0 -2.68966e-25 -8.41934e-25 6.48197e-24 -7.51504e-25 0 -4.33347e-25 -2.06744e-29 -3.53123e-25
          6.00438e-25 -1.27318e-24 -2.09833e-24 -3.44241e-25 -2.72638e-24 1.04439e-24 -2.8896e-23 0 2.88961e-23 -2.11893e-23 1.75041e-23 4.39654e-25
        </DataArray>
        <DataArray type="Float32" Name="velocity[2]" NumberOfComponents="1" format="ascii">
          -9.17397e-11 4.33367e-09 -3.07102e-09 -3.1713e-09 -2.95188e-09 -2.99773e-09 -2.67931e-09 -2.43524e-09 -2.43323e-09 -3.00815e-09 -3.15476e-09 -2.97343e-09
          -2.50177e-09 -2.03608e-09 -1.39199e-09 -1.20797e-09 1.75822e-08 -2.47603e-09 -3.74105e-09 -1.75473e-09 -1.61871e-09 -7.50362e-10 -1.60606e-09 -1.83147e-09
          -3.11746e-09 -3.37943e-09 -4.2798e-09 -2.8851e-09 -1.61993e-09 -1.87339e-09 -7.58484e-09 3.81759e-08 -6.89754e-10 1.29148e-11 -3.67922e-09 -2.66278e-09
          -5.78458e-10 -1.42046e-09 -2.81895e-09 -4.1985e-09 -3.93946e-09 -7.38182e-09 -3.45681e-09 -2.14987e-09 -2.52932e-09 -1.24161e-08 3.43095e-08 2.4794e-10
          1.22087e-08 -5.90346e-09 -5.90322e-09 -3.8107e-09 -2.54223e-09 -3.75152e-09 -4.97989e-09 -3.52889e-09 -1.04656e-08 -2.6346e-09 -2.49007e-09 -3.33013e-09
          -1.02073e-08 -6.96936e-10 -9.79522e-10 -2.64574e-08 -1.25245e-08 -1.58048e-08 -1.29877e-08 -9.34443e-09 -4.52695e-09 -5.9313e-09 -5.15343e-09 -1.6815e-08
          -1.17993e-09 -1.66812e-09 -3.67299e-09 -3.01358e-08 -3.81319e-08 -2.44853e-09 -4.96596e-08 -1.71392e-08 -3.49737e-08 -1.82332e-08 -1.38679e-08 -3.2983e-09
          -3.59282e-09 -4.77243e-09 -2.31498e-08 -9.43482e-10 -1.36902e-09 -3.97677e-09 -3.15256e-08 -3.45571e-08 -1.75216e-09 -1.8363e-08 -1.24477e-08 -5.55207e-08
          -1.4516e-08 -2.15857e-08 -3.21745e-09 -2.78239e-09 -5.21577e-09 -2.81327e-08 -8.1579e-10 -1.16468e-09 -4.13272e-09 -2.88576e-08 -3.20591e-08 -1.90251e-09
          -5.2013e-09 -7.04164e-09 -5.72614e-08 -9.95284e-09 -4.08324e-08 -3.0159e-09 -2.30974e-09 -5.10526e-09 -3.15962e-08 -1.04373e-09 -1.55378e-09 -4.65548e-09
          -2.61801e-08 -2.91443e-08 -1.98177e-09 -2.51925e-09 -6.64149e-09 -4.7469e-08 -5.03073e-09 -5.81093e-08 -2.03868e-09 -1.54687e-09 -6.08136e-09 -2.99088e-08
          -9.81745e-10 -1.41637e-09 -5.0754e-09 -2.21656e-08 -2.80562e-08 -4.12608e-09 -2.00829e-09 -6.7733e-09 -4.43789e-08 -3.17501e-09 -7.05441e-08 -1.5591e-09
          -1.14474e-09 -9.69697e-09 -2.51928e-08 -1.17884e-09 -1.33243e-09 -5.50678e-09 -1.6102e-08 -2.52649e-08 -5.19421e-09 -1.77484e-09 -6.8048e-09 -4.19703e-08
          -1.76804e-09 -7.89349e-08 -2.43406e-09 -1.09548e-09 -1.2648e-08 -2.07054e-08 -1.9967e-09 -1.37404e-09 -5.8175e-09 -1.23037e-08 -2.32205e-08 -5.86766e-09
          -1.49039e-09 -7.27582e-09 -4.12208e-08 -1.24016e-09 -8.26025e-08 -3.75077e-09 -1.64379e-09 -1.34221e-08 -1.49875e-08 -4.00963e-09 -2.45841e-09 -6.37239e-09
          -1.00638e-08 -2.12119e-08 -4.9937e-09 -1.60824e-09 -6.71409e-09 -4.16033e-08 -2.57667e-09 -8.7358e-08 -8.20276e-09 -1.3357e-09 -1.27574e-08 -7.76438e-09
          -6.9641e-09 -3.23942e-09 -6.13524e-09 -8.65818e-09 -2.07881e-08 -4.43313e-09 -2.19725e-09 -4.82921e-09 -3.91099e-08 -1.19678e-09 -8.70675e-08 -1.46882e-08
          -1.58958e-09 -7.77823e-09 -2.7377e-09 -7.86221e-09 -5.1836e-09 -5.39934e-09 -7.99599e-09 -1.65549e-08 -3.7442e-09 -2.87846e-09 -6.4787e-09 -3.96673e-08
          -7.93282e-10 -8.31247e-08 -1.96501e-08 -5.45496e-09 -4.29887e-09 -1.85176e-09 -6.91594e-09 -7.41152e-09 -4.49982e-09 -9.77806e-09 -1.19107e-08 -2.93839e-09
          -1.71003e-09 -7.20209e-09 -4.01188e-08 -1.04375e-09 -7.32146e-08 -2.2787e-08 -8.94437e-09 -4.83406e-09 -4.29307e-09 -9.50608e-09 -1.17256e-08 -3.50113e-09
          -1.07063e-08 -8.71734e-09 -2.2401e-09 -1.91863e-09 -9.37275e-09 -3.55104e-08 -2.42591e-09 -5.95428e-08 -2.35676e-08 -1.24656e-08 -3.34299e-09 -3.72563e-09
          -9.02827e-09 -1.81446e-08 -2.61422e-09 -1.0896e-08 -7.17273e-09 -1.31243e-09 -1.79758e-09 -1.41106e-08 -2.63498e-08 -3.49772e-09 -4.71616e-08 -2.5747e-08
          -1.72e-08 -3.01648e-09 -3.21594e-09 -6.09245e-09 -2.26881e-08 -2.09582e-09 -1.01466e-08 -5.81698e-09 -1.49311e-09 -1.42087e-09 -1.77077e-08 -1.75996e-08
          -3.58542e-09 -3.45287e-08 -2.63454e-08 -2.6332e-08 -3.10641e-09 -3.40848e-09 -7.12855e-09 -2.62026e-08 -2.31556e-09 -8.52337e-09 -4.04571e-09 -1.20149e-09
          -1.14838e-09 -1.89184e-08 -1.08492e-08 -3.37048e-09 -2.5884e-08 -1.95381e-08 -4.37199e-08 -3.14218e-09 -3.18467e-09 -8.72838e-09 -2.78024e-08 -2.91085e-09
          -6.7031e-09 -3.22989e-09 -1.38857e-09 -1.11711e-09 -1.81571e-08 -7.017e-09 -3.28234e-09 -2.08028e-08 -9.70024e-09 -5.70822e-08 -3.45379e-09 -3.95301e-09
          -1.07036e-08 -2.93996e-08 -3.24463e-09 -4.43314e-09 -2.19619e-09 -1.5444e-09 -1.27273e-09 -1.42934e-08 -6.15961e-09 -3.65061e-09 -1.98132e-08 -6.13539e-09
          -5.98427e-08 -4.39231e-09 -6.00109e-09 -1.19949e-08 -3.14914e-08 -4.6008e-09 -2.1823e-09 -1.18428e-09 -1.0921e-09 -1.17473e-09 -8.23251e-09 -5.63011e-09
          -3.93505e-09 -2.11685e-08 -5.93058e-09 -5.35318e-08 -7.2779e-09 -1.03673e-08 -1.66285e-08 -3.338e-08 -5.80979e-09 -6.7753e-10 -5.03868e-10 -3.74984e-10
          -3.7693e-10 -2.26784e-09 -2.41827e-09 -1.9698e-09 -1.22317e-08 -6.13169e-09 -3.11137e-08 -1.33242e-08 -1.16691e-08 -1.33064e-08 -1.85654e-08 -3.11826e-09
        </DataArray>
        <DataArray type="Float32" Name="z[0]" NumberOfComponents="1" format="ascii">
          0.150578 0.150579 0.15058 0.150582 0.150582 0.150583 0.150584 0.150585 0.150585 0.150586 0.150587 0.150588
          0.150589 0.150591 0.150596 0.150581 0.150582 0.150583 0.150585 0.150586 0.150587 0.150587 0.150588 0.150588
          0.150589 0.15059 0.150591 0.150593 0.150595 0.150599 0.150584 0.150585 0.150587 0.150588 0.150589 0.15059
          0.15059 0.150591 0.150592 0.150593 0.150593 0.150595 0.150596 0.150598 0.150602 0.150588 0.150589 0.15059
          0.150591 0.150592 0.150593 0.150594 0.150594 0.150595 0.150596 0.150597 0.150598 0.150599 0.150601 0.150605
          0.150591 0.150592 0.150593 0.150594 0.150595 0.150596 0.150597 0.150611 0.150598 0.150599 0.1506 0.150601
          0.150602 0.150604 0.150609 0.150594 0.150595 0.150596 0.150597 0.150598 0.150599 0.150616 0.304099 0.150601