<?xml version="1.0"?>
<VTKFile type="UnstructuredGrid" version="0.1" byte_order="LittleEndian">
  <UnstructuredGrid>
    <Piece NumberOfCells="360" NumberOfPoints="800">
      <CellData Scalars="pressure[0]">
        <DataArray type="Float32" Name="pressure[0]" NumberOfComponents="1" format="ascii">
          2.11295e+07 2.11442e+07 2.20941e+07 2.29589e+07 2.33046e+07 2.37152e+07 2.38502e+07 2.38994e+07 2.39589e+07 2.4022e+07 2.41939e+07 2.44863e+07
          2.47128e+07 2.53258e+07 2.60481e+07 2.11738e+07 2.11886e+07 2.22471e+07 2.31673e+07 2.35064e+07 2.39128e+07 2.40094e+07 2.40469e+07 2.41068e+07
          2.41775e+07 2.44234e+07 2.47266e+07 2.4903e+07 2.55249e+07 2.62136e+07 2.12186e+07 2.12331e+07 2.23178e+07 2.33371e+07 2.36466e+07 2.40233e+07
          2.41374e+07 2.41916e+07 2.42681e+07 2.43663e+07 2.47067e+07 2.50627e+07 2.52243e+07 2.57818e+07 2.64216e+07 2.12641e+07 2.12832e+07 2.21475e+07
          2.34842e+07 2.37986e+07 2.41857e+07 2.43018e+07 2.43782e+07 2.44969e+07 2.46488e+07 2.50858e+07 2.54778e+07 2.56295e+07 2.60798e+07 2.66777e+07
          2.13438e+07 2.13725e+07 1.97708e+07 2.3612e+07 2.41801e+07 2.4764e+07 2.48464e+07 2.48882e+07 2.49735e+07 2.52176e+07 2.5561e+07 2.59102e+07
          2.60324e+07 2.64081e+07 2.69276e+07 2.15305e+07 2.15739e+07 2.17911e+07 2.43306e+07 2.48323e+07 2.52887e+07 2.53491e+07 2.54097e+07 2.56382e+07
          2.65087e+07 2.63905e+07 2.62924e+07 2.63998e+07 2.67385e+07 2.72049e+07 2.17631e+07 2.18122e+07 2.24975e+07 2.5039e+07 2.54622e+07 2.58156e+07
          2.58732e+07 2.59363e+07 2.60102e+07 2.63039e+07 2.65007e+07 2.65581e+07 2.66768e+07 2.70863e+07 2.75834e+07 2.20877e+07 2.21402e+07 2.30244e+07
          2.54963e+07 2.5979e+07 2.62585e+07 2.63105e+07 2.63569e+07 2.64252e+07 2.65941e+07 2.67272e+07 2.67868e+07 2.69694e+07 2.74397e+07 2.80987e+07
          2.25494e+07 2.261e+07 2.34973e+07 2.57372e+07 2.64615e+07 2.66895e+07 2.67767e+07 2.6859e+07 2.68563e+07 2.69167e+07 2.69728e+07 2.70054e+07
          2.72056e+07 2.78328e+07 2.86102e+07 2.31074e+07 2.3212e+07 2.39684e+07 2.47779e+07 2.68269e+07 2.70638e+07 2.7265e+07 2.74505e+07 2.73063e+07
          2.72589e+07 2.72614e+07 2.72936e+07 2.75231e+07 2.82371e+07 2.89202e+07 2.38967e+07 2.41085e+07 2.46851e+07 2.52546e+07 2.71688e+07 2.73503e+07
          2.76746e+07 2.7956e+07 2.77598e+07 2.76384e+07 2.75564e+07 2.75967e+07 2.78101e+07 2.8609e+07 2.94656e+07 2.53921e+07 2.55329e+07 2.56637e+07
          2.6048e+07 2.75248e+07 2.76346e+07 2.80975e+07 2.848e+07 2.85524e+07 2.83313e+07 2.83201e+07 2.83768e+07 2.88134e+07 2.92675e+07 3.01374e+07
          2.64686e+07 2.64994e+07 2.63821e+07 2.67252e+07 2.79949e+07 2.81054e+07 2.86028e+07 2.90415e+07 2.91376e+07 2.91629e+07 2.91712e+07 2.93688e+07
          2.98222e+07 3.05527e+07 3.07352e+07 2.732e+07 2.7351e+07 2.71102e+07 2.80282e+07 2.87797e+07 2.88604e+07 2.92708e+07 2.95972e+07 2.96647e+07
          2.97494e+07 2.98327e+07 3.02632e+07 3.08312e+07 3.1277e+07 3.11219e+07 2.80113e+07 2.80114e+07 2.803e+07 2.90926e+07 2.95025e+07 2.95607e+07
          2.9836e+07 3.00337e+07 3.00835e+07 3.01603e+07 3.03078e+07 3.09784e+07 3.15015e+07 3.16692e+07 3.15772e+07 2.8633e+07 2.86593e+07 2.87546e+07
          2.97309e+07 2.99459e+07 2.99995e+07 3.0195e+07 3.03248e+07 3.03726e+07 3.04426e+07 3.07086e+07 3.13524e+07 3.18332e+07 3.21146e+07 3.20085e+07
          2.92759e+07 2.93275e+07 2.97037e+07 3.02013e+07 3.03129e+07 3.03522e+07 3.04571e+07 3.0549e+07 3.05958e+07 3.06567e+07 3.10042e+07 3.17681e+07
          3.22844e+07 3.25586e+07 3.2406e+07 2.97981e+07 2.98574e+07 3.02011e+07 3.04626e+07 3.05779e+07 3.06223e+07 3.07049e+07 3.07742e+07 3.08228e+07
          3.08789e+07 3.1304e+07 3.211e+07 3.2637e+07 3.28641e+07 3.28024e+07 3.00962e+07 3.01614e+07 3.03661e+07 3.06592e+07 3.08118e+07 3.08593e+07
          3.09323e+07 3.09938e+07 3.10389e+07 3.10932e+07 3.15596e+07 3.24488e+07 3.29881e+07 3.31617e+07 3.3341e+07 3.03378e+07 3.03959e+07 3.05796e+07
          3.08702e+07 3.10203e+07 3.10683e+07 3.11394e+07 3.11979e+07 3.12433e+07 3.1303e+07 3.17648e+07 3.27433e+07 3.33347e+07 3.34742e+07 3.38549e+07
          3.05433e+07 3.06084e+07 3.07554e+07 3.10242e+07 3.12092e+07 3.12613e+07 3.13375e+07 3.13992e+07 3.14585e+07 3.15325e+07 3.21825e+07 3.3228e+07
          3.36583e+07 3.38047e+07 3.4262e+07 3.07407e+07 3.08081e+07 3.09396e+07 3.12019e+07 3.13901e+07 3.14468e+07 3.15344e+07 3.16046e+07 3.16802e+07
          3.17649e+07 3.26393e+07 3.37245e+07 3.39926e+07 3.41676e+07 3.46594e+07 3.09222e+07 3.09842e+07 3.1141e+07 3.14165e+07 3.1571e+07 3.16354e+07
          3.17378e+07 3.18188e+07 3.1915e+07 3.20193e+07 3.30305e+07 3.41389e+07 3.43695e+07 3.45638e+07 3.49523e+07 3.10894e+07 3.11487e+07 3.1287e+07
          3.15627e+07 3.17587e+07 3.18246e+07 3.19395e+07 3.20334e+07 3.21498e+07 3.22882e+07 3.34599e+07 3.45028e+07 3.47577e+07 3.49349e+07 3.52146e+07
        </DataArray>
        <DataArray type="Float32" Name="pressure[1]" NumberOfComponents="1" format="ascii">
          2.11295e+07 2.11442e+07 2.20941e+07 2.29589e+07 2.33046e+07 2.37152e+07 2.38502e+07 2.38994e+07 2.39589e+07 2.4022e+07 2.41939e+07 2.44863e+07
          2.47128e+07 2.53258e+07 2.60481e+07 2.11738e+07 2.11886e+07 2.22471e+07 2.31673e+07 2.35064e+07 2.39128e+07 2.40094e+07 2.40469e+07 2.41068e+07
          2.41775e+07 2.44234e+07 2.47266e+07 2.4903e+07 2.55249e+07 2.62136e+07 2.12186e+07 2.12331e+07 2.23178e+07 2.33371e+07 2.36466e+07 2.40233e+07
          2.41374e+07 2.41916e+07 2.42681e+07 2.43663e+07 2.47067e+07 2.50627e+07 2.52243e+07 2.57818e+07 2.64216e+07 2.12641e+07 2.12832e+07 2.21475e+07
          2.34842e+07 2.37986e+07 2.41857e+07 2.43018e+07 2.43782e+07 2.44969e+07 2.46488e+07 2.50858e+07 2.54778e+07 2.56295e+07 2.60798e+07 2.66777e+07
          2.13438e+07 2.13725e+07 1.97708e+07 2.3612e+07 2.41801e+07 2.4764e+07 2.48464e+07 2.48882e+07 2.49735e+07 2.52176e+07 2.5561e+07 2.59102e+07
          2.60324e+07 2.64081e+07 2.69276e+07 2.15305e+07 2.15739e+07 2.17911e+07 2.43306e+07 2.48323e+07 2.52887e+07 2.53491e+07 2.54097e+07 2.56382e+07
          2.65087e+07 2.63905e+07 2.62924e+07 2.63998e+07 2.67385e+07 2.72049e+07 2.17631e+07 2.18122e+07 2.24975e+07 2.5039e+07 2.54622e+07 2.58156e+07
          2.58732e+07 2.59363e+07 2.60102e+07 2.63039e+07 2.65007e+07 2.65581e+07 2.66768e+07 2.70863e+07 2.75834e+07 2.20877e+07 2.21402e+07 2.30244e+07
          2.54963e+07 2.5979e+07 2.62585e+07 2.63105e+07 2.63569e+07 2.64252e+07 2.65941e+07 2.67272e+07 2.67868e+07 2.69694e+07 2.74397e+07 2.80987e+07
          2.25494e+07 2.261e+07 2.34973e+07 2.57372e+07 2.64615e+07 2.66895e+07 2.67767e+07 2.6859e+07 2.68563e+07 2.69167e+07 2.69728e+07 2.70054e+07
          2.72056e+07 2.78328e+07 2.86102e+07 2.31074e+07 2.3212e+07 2.39684e+07 2.47779e+07 2.68269e+07 2.70638e+07 2.7265e+07 2.74505e+07 2.73063e+07
          2.72589e+07 2.72614e+07 2.72936e+07 2.75231e+07 2.82371e+07 2.89202e+07 2.38967e+07 2.41085e+07 2.46851e+07 2.52546e+07 2.71688e+07 2.73503e+07
          2.76746e+07 2.7956e+07 2.77598e+07 2.76384e+07 2.75564e+07 2.75967e+07 2.78101e+07 2.8609e+07 2.94656e+07 2.53921e+07 2.55329e+07 2.56637e+07
          2.6048e+07 2.75248e+07 2.76346e+07 2.80975e+07 2.848e+07 2.85524e+07 2.83313e+07 2.83201e+07 2.83768e+07 2.88134e+07 2.92675e+07 3.01374e+07
          2.64686e+07 2.64994e+07 2.63821e+07 2.67252e+07 2.79949e+07 2.81054e+07 2.86028e+07 2.90415e+07 2.91376e+07 2.91629e+07 2.91712e+07 2.93688e+07
          2.98222e+07 3.05527e+07 3.07352e+07 2.732e+07 2.7351e+07 2.71102e+07 2.80282e+07 2.87797e+07 2.88604e+07 2.92708e+07 2.95972e+07 2.96647e+07
          2.97494e+07 2.98327e+07 3.02632e+07 3.08312e+07 3.1277e+07 3.11219e+07 2.80113e+07 2.80114e+07 2.803e+07 2.90926e+07 2.95025e+07 2.95607e+07
          2.9836e+07 3.00337e+07 3.00835e+07 3.01603e+07 3.03078e+07 3.09784e+07 3.15015e+07 3.16692e+07 3.15772e+07 2.8633e+07 2.86593e+07 2.87546e+07
          2.97309e+07 2.99459e+07 2.99995e+07 3.0195e+07 3.03248e+07 3.03726e+07 3.04426e+07 3.07086e+07 3.13524e+07 3.18332e+07 3.21146e+07 3.20085e+07
          2.92759e+07 2.93275e+07 2.97037e+07 3.02013e+07 3.03129e+07 3.03522e+07 3.04571e+07 3.0549e+07 3.05958e+07 3.06567e+07 3.10042e+07 3.17681e+07
          3.22844e+07 3.25586e+07 3.2406e+07 2.97981e+07 2.98574e+07 3.02011e+07 3.04626e+07 3.05779e+07 3.06223e+07 3.07049e+07 3.07742e+07 3.08228e+07
          3.08789e+07 3.1304e+07 3.211e+07 3.2637e+07 3.28641e+07 3.28024e+07 3.00962e+07 3.01614e+07 3.03661e+07 3.06592e+07 3.08118e+07 3.08593e+07
          3.09323e+07 3.09938e+07 3.10389e+07 3.10932e+07 3.15596e+07 3.24488e+07 3.29881e+07 3.31617e+07 3.3341e+07 3.03378e+07 3.03959e+07 3.05796e+07
          3.08702e+07 3.10203e+07 3.10683e+07 3.11394e+07 3.11979e+07 3.12433e+07 3.1303e+07 3.17648e+07 3.27433e+07 3.33347e+07 3.34742e+07 3.38549e+07
          3.05433e+07 3.06084e+07 3.07554e+07 3.10242e+07 3.12092e+07 3.12613e+07 3.13375e+07 3.13992e+07 3.14585e+07 3.15325e+07 3.21825e+07 3.3228e+07
          3.36583e+07 3.38047e+07 3.4262e+07 3.07407e+07 3.08081e+07 3.09396e+07 3.12019e+07 3.13901e+07 3.14468e+07 3.15344e+07 3.16046e+07 3.16802e+07
          3.17649e+07 3.26393e+07 3.37245e+07 3.39926e+07 3.41676e+07 3.46594e+07 3.09222e+07 3.09842e+07 3.1141e+07 3.14165e+07 3.1571e+07 3.16354e+07
          3.17378e+07 3.18188e+07 3.1915e+07 3.20193e+07 3.30305e+07 3.41389e+07 3.43695e+07 3.45638e+07 3.49523e+07 3.10894e+07 3.11487e+07 3.1287e+07
          3.15627e+07 3.17587e+07 3.18246e+07 3.19395e+07 3.20334e+07 3.21498e+07 3.22882e+07 3.34599e+07 3.45028e+07 3.47577e+07 3.49349e+07 3.52146e+07
        </DataArray>
        <DataArray type="Float32" Name="pressure[2]" NumberOfComponents="1" format="ascii">
          2.11295e+07 2.11442e+07 2.20941e+07 2.29589e+07 2.33046e+07 2.37152e+07 2.38502e+07 2.38994e+07 2.39589e+07 2.4022e+07 2.41939e+07 2.44863e+07
          2.47128e+07 2.53258e+07 2.60481e+07 2.11738e+07 2.11886e+07 2.22471e+07 2.31673e+07 2.35064e+07 2.39128e+07 2.40094e+07 2.40469e+07 2.41068e+07
          2.41775e+07 2.44234e+07 2.47266e+07 2.4903e+07 2.55249e+07 2.62136e+07 2.12186e+07 2.12331e+07 2.23178e+07 2.33371e+07 2.36466e+07 2.40233e+07
          2.41374e+07 2.41916e+07 2.42681e+07 2.43663e+07 2.47067e+07 2.50627e+07 2.52243e+07 2.57818e+07 2.64216e+07 2.12641e+07 2.12832e+07 2.21475e+07
          2.34842e+07 2.37986e+07 2.41857e+07 2.43018e+07 2.43782e+07 2.44969e+07 2.46488e+07 2.50858e+07 2.54778e+07 2.56295e+07 2.60798e+07 2.66777e+07
          2.13438e+07 2.13725e+07 1.97708e+07 2.3612e+07 2.41801e+07 2.4764e+07 2.48464e+07 2.48882e+07 2.49735e+07 2.52176e+07 2.5561e+07 2.59102e+07
          2.60324e+07 2.64081e+07 2.69276e+07 2.15305e+07 2.15739e+07 2.17911e+07 2.43306e+07 2.48323e+07 2.52887e+07 2.53491e+07 2.54097e+07 2.56382e+07
          2.65087e+07 2.63905e+07 2.62924e+07 2.63998e+07 2.67385e+07 2.72049e+07 2.17631e+07 2.18122e+07 2.24975e+07 2.5039e+07 2.54622e+07 2.58156e+07
          2.58732e+07 2.59363e+07 2.60102e+07 2.63039e+07 2.65007e+07 2.65581e+07 2.66768e+07 2.70863e+07 2.75834e+07 2.20877e+07 2.21402e+07 2.30244e+07
          2.54963e+07 2.5979e+07 2.62585e+07 2.63105e+07 2.63569e+07 2.64252e+07 2.65941e+07 2.67272e+07 2.67868e+07 2.69694e+07 2.74397e+07 2.80987e+07
          2.25494e+07 2.261e+07 2.34973e+07 2.57372e+07 2.64615e+07 2.66895e+07 2.67767e+07 2.6859e+07 2.68563e+07 2.69167e+07 2.69728e+07 2.70054e+07
          2.72056e+07 2.78328e+07 2.86102e+07 2.31074e+07 2.3212e+07 2.39684e+07 2.47779e+07 2.68269e+07 2.70638e+07 2.7265e+07 2.74505e+07 2.73063e+07
          2.72589e+07 2.72614e+07 2.72936e+07 2.75231e+07 2.82371e+07 2.89202e+07 2.38967e+07 2.41085e+07 2.46851e+07 2.52546e+07 2.71688e+07 2.73503e+07
          2.76746e+07 2.7956e+07 2.77598e+07 2.76384e+07 2.75564e+07 2.75967e+07 2.78101e+07 2.8609e+07 2.94656e+07 2.53921e+07 2.55329e+07 2.56637e+07
          2.6048e+07 2.75248e+07 2.76346e+07 2.80975e+07 2.848e+07 2.85524e+07 2.83313e+07 2.83201e+07 2.83768e+07 2.88134e+07 2.92675e+07 3.01374e+07
          2.64686e+07 2.64994e+07 2.63821e+07 2.67252e+07 2.79949e+07 2.81054e+07 2.86028e+07 2.90415e+07 2.91376e+07 2.91629e+07 2.91712e+07 2.93688e+07
          2.98222e+07 3.05527e+07 3.07352e+07 2.732e+07 2.7351e+07 2.71102e+07 2.80282e+07 2.87797e+07 2.88604e+07 2.92708e+07 2.95972e+07 2.96647e+07
          2.97494e+07 2.98327e+07 3.02632e+07 3.08312e+07 3.1277e+07 3.11219e+07 2.80113e+07 2.80114e+07 2.803e+07 2.90926e+07 2.95025e+07 2.95607e+07
          2.9836e+07 3.00337e+07 3.00835e+07 3.01603e+07 3.03078e+07 3.09784e+07 3.15015e+07 3.16692e+07 3.15772e+07 2.8633e+07 2.86593e+07 2.87546e+07
          2.97309e+07 2.99459e+07 2.99995e+07 3.0195e+07 3.03248e+07 3.03726e+07 3.04426e+07 3.07086e+07 3.13524e+07 3.18332e+07 3.21146e+07 3.20085e+07
          2.92759e+07 2.93275e+07 2.97037e+07 3.02013e+07 3.03129e+07 3.03522e+07 3.04571e+07 3.0549e+07 3.05958e+07 3.06567e+07 3.10042e+07 3.17681e+07
          3.22844e+07 3.25586e+07 3.2406e+07 2.97981e+07 2.98574e+07 3.02011e+07 3.04626e+07 3.05779e+07 3.06223e+07 3.07049e+07 3.07742e+07 3.08228e+07
          3.08789e+07 3.1304e+07 3.211e+07 3.2637e+07 3.28641e+07 3.28024e+07 3.00962e+07 3.01614e+07 3.03661e+07 3.06592e+07 3.08118e+07 3.08593e+07
          3.09323e+07 3.09938e+07 3.10389e+07 3.10932e+07 3.15596e+07 3.24488e+07 3.29881e+07 3.31617e+07 3.3341e+07 3.03378e+07 3.03959e+07 3.05796e+07
          3.08702e+07 3.10203e+07 3.10683e+07 3.11394e+07 3.11979e+07 3.12433e+07 3.1303e+07 3.17648e+07 3.27433e+07 3.33347e+07 3.34742e+07 3.38549e+07
          3.05433e+07 3.06084e+07 3.07554e+07 3.10242e+07 3.12092e+07 3.12613e+07 3.13375e+07 3.13992e+07 3.14585e+07 3.15325e+07 3.21825e+07 3.3228e+07
          3.36583e+07 3.38047e+07 3.4262e+07 3.07407e+07 3.08081e+07 3.09396e+07 3.12019e+07 3.13901e+07 3.14468e+07 3.15344e+07 3.16046e+07 3.16802e+07
          3.17649e+07 3.26393e+07 3.37245e+07 3.39926e+07 3.41676e+07 3.46594e+07 3.09222e+07 3.09842e+07 3.1141e+07 3.14165e+07 3.1571e+07 3.16354e+07
          3.17378e+07 3.18188e+07 3.1915e+07 3.20193e+07 3.30305e+07 3.41389e+07 3.43695e+07 3.45638e+07 3.49523e+07 3.10894e+07 3.11487e+07 3.1287e+07
          3.15627e+07 3.17587e+07 3.18246e+07 3.19395e+07 3.20334e+07 3.21498e+07 3.22882e+07 3.34599e+07 3.45028e+07 3.47577e+07 3.49349e+07 3.52146e+07
        </DataArray>
        <DataArray type="Float32" Name="velocity[0]" NumberOfComponents="1" format="ascii">
          -1.52713e-09 5.99277e-08 -1.41379e-10 -2.19112e-08 -7.29241e-10 -2.46958e-09 -3.53286e-09 -1.01578e-09 -2.04055e-09 -2.81938e-09 -2.27953e-09 -3.41134e-09
          -2.54847e-09 -6.37447e-10 -2.54519e-09 -8.69708e-09 1.76841e-07 2.96601e-10 -7.47484e-08 -7.14169e-10 -7.44198e-10 -7.16101e-10 -1.49429e-09 -6.58596e-09
          -8.53306e-09 -4.92261e-09 -1.40763e-08 -8.9919e-09 -1.97925e-09 -6.7391e-09 -2.99501e-08 2.71917e-07 1.66326e-09 -8.33635e-08 -2.28496e-10 1.27204e-10
          -8.04674e-10 -4.25259e-09 -1.31885e-08 -1.49638e-08 -6.2761e-09 -3.40008e-08 -1.18753e-08 -4.05185e-09 -1.00137e-08 -2.85187e-08 2.99999e-07 9.94272e-09
          -1.95115e-08 -2.1771e-09 -1.5272e-08 -2.9736e-08 -2.69456e-08 -2.3385e-08 -2.46337e-08 -8.34205e-09 -6.20844e-08 -8.07338e-09 -5.6329e-09 -1.34501e-08
          -6.89463e-08 5.21064e-08 3.47415e-09 -5.96479e-08 -8.15256e-09 -4.42033e-08 -6.31697e-08 -5.979e-08 -2.61468e-08 -3.20401e-08 -1.58353e-08 -1.09184e-07
          -4.11435e-09 -5.0399e-09 -1.6334e-08 -1.35795e-07 -1.70608e-07 -6.65174e-09 -9.86575e-08 -1.4403e-08 -9.75041e-08 -6.61897e-08 -9.13067e-08 -1.47301e-08
          -1.45638e-08 -1.0241e-08 -1.27428e-07 -2.27358e-09 -3.93055e-09 -1.8167e-08 -1.40403e-07 -1.51875e-07 -2.56965e-09 -3.26106e-08 -1.32837e-08 -1.55921e-07
          -4.85105e-08 -1.4564e-07 -6.34799e-09 1.40133e-09 -3.98621e-09 -1.15309e-07 -1.63995e-09 -3.71699e-09 -1.93881e-08 -1.29872e-07 -1.41604e-07 -2.56361e-09
          -5.0582e-09 -8.3193e-09 -1.83771e-07 -2.72454e-08 -2.16717e-07 -5.10166e-09 -1.53446e-09 -1.14451e-08 -1.1684e-07 -1.24381e-09 -3.7183e-09 -2.07921e-08
          -1.18036e-07 -1.29768e-07 -3.47132e-09 1.58818e-09 -5.21845e-09 -1.92148e-07 -1.06807e-08 -2.80139e-07 -3.654e-09 -1.84842e-09 -2.01618e-08 -1.07561e-07
          -1.11591e-09 -3.35408e-09 -2.26821e-08 -9.26748e-08 -1.15985e-07 -1.14919e-08 6.18262e-10 -3.96955e-09 -1.94913e-07 -3.6204e-09 -3.43053e-07 -3.54971e-09
          -2.53706e-09 -3.40834e-08 -8.5286e-08 -1.66888e-09 -3.08912e-09 -2.45522e-08 -5.55558e-08 -8.84824e-08 -3.48376e-08 -2.89959e-09 -4.70411e-09 -1.98989e-07
          -1.24716e-09 -4.05679e-07 -4.58617e-09 -5.37418e-09 -4.01934e-08 -5.98321e-08 -4.15353e-09 -4.98883e-09 -2.5754e-08 -3.32143e-08 -6.18215e-08 -5.21555e-08
          -2.64353e-09 -7.24453e-09 -2.05237e-07 -1.04644e-09 -4.41987e-07 -1.32919e-08 -6.37516e-09 -3.51426e-08 -3.77464e-08 -1.0926e-08 -7.80604e-09 -2.648e-08
          -3.00237e-08 -5.98023e-08 -4.3376e-08 -2.36995e-09 -1.19048e-08 -1.95859e-07 -1.48985e-09 -4.44206e-07 -3.92819e-08 -5.68467e-09 -2.44839e-08 -1.81568e-08
          -2.22966e-08 -1.19864e-08 -2.68467e-08 -3.31555e-08 -6.91606e-08 -2.63608e-08 -2.54692e-09 -1.72013e-08 -1.80456e-07 -1.50894e-09 -4.13459e-07 -6.90027e-08
          -1.04001e-08 -1.44496e-08 -5.48772e-09 -2.72282e-08 -2.15555e-08 -2.55494e-08 -4.1406e-08 -6.59036e-08 -1.47233e-08 -2.43218e-09 -2.24609e-08 -1.76315e-07
          -1.05657e-09 -3.70655e-07 -8.31213e-08 -1.80016e-08 -1.04659e-08 -2.95164e-09 -2.54752e-08 -3.3724e-08 -2.26862e-08 -5.11901e-08 -5.27688e-08 -6.90546e-09
          -2.84333e-09 -2.80557e-08 -1.73239e-07 -1.28893e-09 -3.13259e-07 -8.6535e-08 -2.60512e-08 -6.68732e-09 -4.07534e-09 -2.89517e-08 -4.97018e-08 -1.90443e-08
          -5.45468e-08 -4.16877e-08 -3.18878e-09 -3.76298e-09 -3.96816e-08 -1.51187e-07 -2.49728e-09 -2.47508e-07 -8.69829e-08 -4.08254e-08 -2.88998e-09 -4.05229e-09
          -2.37274e-08 -7.38687e-08 -1.5102e-08 -5.32094e-08 -3.30273e-08 -1.3588e-09 -2.50104e-09 -5.84341e-08 -1.0847e-07 -3.84159e-09 -1.89407e-07 -9.39171e-08
          -6.16436e-08 -2.07055e-09 -2.74597e-09 -1.54291e-08 -9.66449e-08 -1.178e-08 -4.7707e-08 -2.34386e-08 -9.55586e-10 -1.01403e-09 -7.2414e-08 -6.8824e-08
          -4.04326e-09 -1.35454e-07 -9.40215e-08 -9.71234e-08 -1.20334e-09 -2.26618e-09 -2.02176e-08 -1.10568e-07 -1.03146e-08 -3.94421e-08 -1.57492e-08 -1.18646e-09
          -4.84037e-10 -7.72774e-08 -3.91922e-08 -3.37908e-09 -9.9161e-08 -6.09104e-08 -1.68869e-07 -2.11774e-09 -3.23441e-09 -3.0062e-08 -1.17362e-07 -1.11088e-08
          -3.009e-08 -1.06106e-08 -1.10748e-09 -1.11766e-10 -7.19499e-08 -2.05435e-08 -2.90346e-09 -7.80498e-08 -2.55314e-08 -2.34704e-07 -3.32999e-09 -5.96621e-09
          -3.65489e-08 -1.22749e-07 -1.27742e-08 -1.89042e-08 -5.40275e-09 -1.78317e-09 -6.78051e-10 -5.3283e-08 -1.40231e-08 -2.84928e-09 -7.39354e-08 -1.38805e-08
          -2.48356e-07 -3.03592e-09 -1.1448e-08 -4.0021e-08 -1.28222e-07 -1.58631e-08 -8.81531e-09 -2.15599e-09 -8.03144e-10 -4.47114e-10 -2.6677e-08 -1.05106e-08
          -2.3465e-09 -7.83144e-08 -1.12079e-08 -2.14112e-07 -4.21159e-09 -1.97309e-08 -5.2578e-08 -1.33688e-07 -2.07254e-08 -2.33399e-09 -4.85081e-10 1.81228e-10
          7.06784e-11 -6.32558e-09 -4.02024e-09 -8.60719e-10 -3.99793e-08 -5.22465e-09 -9.25982e-08 -2.77909e-09 -1.19704e-08 -3.14216e-08 -6.87348e-08 -1.16399e-08
        </DataArray>
        <DataArray type="Float32" Name="velocity[1]" NumberOfComponents="1" format="ascii">
          2.37335e-25 9.64653e-24 8.72709e-27 -3.40526e-24 1.13333e-25 0 5.49049e-25 9.91765e-26 -1.21927e-25 5.51569e-24 -3.35151e-24 -6.47505e-26
          2.18562e-24 -9.54888e-25 3.97528e-25 8.7696e-25 8.57325e-24 3.24897e-27 -4.80628e-24 -2.66943e-26 8.44525e-24 1.40929e-24 3.10368e-25 -8.28067e-24
          1.33594e-25 0 5.42412e-26 -8.34714e-26 -6.03228e-27 2.5623e-25 2.426e-24 -1.25887e-23 -3.21986e-24 3.46739e-24 1.80017e-25 0
          1.13461e-24 5.59025e-25 -6.36824e-25 0 6.52019e-24 -1.10277e-23 0 1.00215e-24 -2.48392e-25 -5.40625e-24 2.19076e-23 -2.33742e-24
          2.47322e-24 5.87871e-25 1.09904e-23 -2.21821e-23 2.86924e-23 -2.06192e-24 -1.16371e-26 3.40847e-24 -4.01153e-24 2.48703e-24 -1.11882e-24 8.42442e-25
          -2.63339e-26 -7.39404e-23 3.51102e-24 4.28133e-24 8.38004e-26 -2.41789e-24 -1.66225e-25 3.14449e-27 2.85653e-24 -4.61042e-24 5.25696e-24 -8.52097e-24
          3.9265e-26 1.3163e-25 -1.35265e-24 -3.79201e-26 4.71558e-24 -2.59354e-25 3.85933e-24 -5.93306e-26 -4.90734e-24 0 8.36743e-25 5.31323e-24
          -1.08846e-23 -8.78805e-24 1.29336e-23 -1.07361e-24 5.78135e-25 1.35591e-24 -7.10549e-25 6.1589e-25 0 3.51626e-24 -5.31793e-25 -1.09891e-23
          5.01228e-25 -3.92261e-25 -4.14654e-25 -4.69102e-26 2.66551e-25 1.79311e-25 -9.19255e-26 1.15852e-26 -1.47071e-24 -9.12749e-26 1.04532e-23 1.06764e-24
          1.35803e-24 4.77198e-26 1.27322e-23 5.11331e-26 1.13465e-25 4.27019e-25 7.16488e-26 -1.42166e-24 -8.51745e-24 7.6438e-26 -2.54432e-25 1.68891e-24
          -9.80175e-25 -7.76646e-24 -1.31841e-25 -1.62167e-24 -1.88663e-25 2.04393e-24 0 0 3.42501e-25 -7.82724e-26 2.56231e-25 2.94826e-24
          1.2985e-25 5.85617e-26 9.23238e-28 -8.69991e-24 1.68871e-24 1.68126e-24 -5.92381e-25 -2.28852e-24 2.57401e-24 -4.83438e-24 5.32898e-24 -2.81933e-25
          -2.11162e-26 2.56479e-25 2.66354e-24 -7.03439e-25 0 -1.83615e-24 2.04851e-25 4.19572e-26 2.4853e-24 -2.20458e-25 2.28221e-24 -2.901e-27
          -3.19101e-24 8.80588e-24 5.91392e-26 3.13953e-25 -8.09218e-25 4.19891e-24 1.49662e-24 -8.53092e-26 4.26546e-26 -2.2307e-24 2.37826e-24 -2.29831e-25
          1.07959e-25 -1.43162e-24 -1.61378e-23 2.64732e-26 1.24176e-24 -2.49841e-24 2.26844e-25 6.1495e-25 1.54064e-24 -6.67275e-25 8.16477e-25 -6.8891e-26
          2.43402e-24 4.20125e-24 0 -8.91146e-27 4.49238e-25 1.83817e-24 4.49333e-26 -8.94049e-25 -2.78514e-24 5.34383e-27 -1.41591e-24 -6.20805e-25
          1.06658e-24 -6.77562e-25 -4.85409e-28 2.82078e-25 -2.90956e-27 5.38968e-25 -3.79825e-26 1.59329e-27 1.37449e-23 -3.79705e-26 -3.88464e-24 5.22247e-24
          -1.16968e-24 1.40483e-24 1.73092e-24 -3.47482e-24 4.262e-28 -1.89051e-24 -2.70989e-24 -4.59717e-24 2.78994e-27 2.07208e-25 4.42246e-25 -2.10653e-28
          -3.08289e-26 -6.78574e-24 1.78462e-24 0 0 2.32052e-25 2.98285e-24 -3.96663e-25 3.52605e-24 0 9.81689e-25 0
          -2.71105e-25 4.28156e-25 -1.27991e-28 6.69393e-26 -6.14969e-24 5.8865e-28 2.16782e-28 2.78855e-28 3.22443e-24 -4.85806e-29 -9.53557e-25 -1.63465e-24
          -2.86582e-31 7.40739e-25 3.96136e-28 -4.31851e-26 1.37992e-24 -7.84213e-24 0 -8.1285e-24 0 1.90519e-28 2.38381e-24 -2.94762e-24
          -1.32846e-24 1.4587e-28 1.02226e-24 0 2.86917e-24 0 3.13915e-25 1.35855e-24 3.80314e-24 8.73522e-26 -4.96129e-24 -4.26074e-24
          -1.64557e-24 1.38838e-25 3.91002e-26 7.90793e-29 -1.35687e-24 -8.08489e-25 3.3841e-24 -1.74843e-24 1.89243e-24 -1.53451e-24 6.3814e-25 6.62714e-24
          -5.60194e-26 -3.42346e-24 7.88642e-24 4.23592e-24 -2.54913e-24 5.50257e-26 7.05238e-25 -2.85772e-28 7.94518e-25 2.15083e-28 -3.08184e-24 6.6949e-25
          -1.39759e-24 2.35727e-25 -2.04807e-24 -9.36825e-26 -4.43297e-24 -3.98744e-24 7.28414e-24 2.07588e-25 2.7248e-24 8.24657e-25 -2.75082e-25 -6.57107e-25
          -8.15003e-25 4.8907e-25 0 -3.19393e-26 -9.45962e-25 3.4471e-24 -6.0592e-24 6.06067e-24 -4.39402e-24 1.24192e-27 0 0
          1.83579e-25 -4.84994e-28 1.05333e-24 -9.23392e-25 -9.72313e-25 8.95418e-25 -1.50304e-24 -5.98092e-25 -1.00826e-24 1.77106e-26 4.25043e-25 -2.87455e-24
          1.0342e-23 -1.95993e-25 -4.95693e-24 3.55875e-25 7.18006e-25 -5.64872e-30 -6.44277e-25 -2.20355e-28 -2.8279e-28 9.04874e-26 -2.18018e-24 3.84272e-25
          -9.71423e-26 7.85044e-24 -3.25766e-24 0 -2.09276e-25 -6.54039e-25 5.05104e-24 -5.88192e-25 0 -3.62974e-25 -2.66704e-28 -2.95261e-25
          5.00309e-25 -9.82653e-25 -1.66097e-24 -2.68669e-25 -2.07899e-24 8.11972e-25 -2.2498e-23 0 2.24889e-23 -1.64743e-23 1.3596e-23 3.42056e-25
        </DataArray>
        <DataArray type="Float32" Name="velocity[2]" NumberOfComponents="1" format="ascii">
          -2.12242e-10 7.79211e-09 -5.6722e-09 -8.41984e-09 -3.59807e-09 -3.81723e-09 -3.85917e-09 -3.32777e-09 -3.41609e-09 -3.38627e-09 -3.08775e-09 -2.99613e-09
          -2.54406e-09 -1.94379e-09 -1.29296e-09 -1.20086e-09 2.90902e-08 -4.84712e-09 -1.66146e-08 -2.11619e-09 -2.42943e-09 -2.85568e-09 -3.21045e-09 -4.02886e-09
          -4.17013e-09 -3.44355e-09 -4.65201e-09 -3.11732e-09 -1.54597e-09 -1.73135e-09 -4.27751e-09 4.80539e-08 -1.59554e-09 -1.78452e-08 -4.35923e-09 -4.18952e-09
          -4.08797e-09 -4.46742e-09 -5.76353e-09 -5.7378e-09 -4.03036e-09 -8.1523e-09 -3.57104e-09 -2.01566e-09 -2.30312e-09 -6.21084e-09 5.10146e-08 -2.85811e-10
          -8.18058e-09 -7.1037e-09 -8.80558e-09 -1.0233e-08 -8.63407e-09 -7.12482e-09 -6.82332e-09 -3.73474e-09 -1.24942e-08 -2.50011e-09 -2.22615e-09 -2.97118e-09
          -8.31495e-09 1.42391e-08 1.07163e-09 -1.33943e-08 -5.47715e-09 -1.08636e-08 -1.31885e-08 -1.19712e-08 -6.33229e-09 -8.11434e-09 -5.57719e-09 -2.08782e-08
          -1.05715e-09 -1.45627e-09 -3.23459e-09 -2.33036e-08 -2.95619e-08 -1.7695e-09 -2.04995e-08 -7.70706e-09 -2.06889e-08 -1.40551e-08 -1.86209e-08 -6.04762e-09
          -4.48482e-09 -5.96304e-10 -2.17976e-08 -6.80934e-10 -1.12795e-09 -3.45316e-09 -2.50625e-08 -2.75482e-08 -1.42207e-09 -7.95039e-09 -5.91271e-09 -3.02787e-08
          -1.07165e-08 -2.71555e-08 -1.81892e-09 -6.12645e-10 -1.2074e-09 -2.05712e-08 -5.56765e-10 -9.59879e-10 -3.5697e-09 -2.32454e-08 -2.59248e-08 -1.65803e-09
          -2.31093e-09 -3.23087e-09 -3.40646e-08 -6.55857e-09 -3.93755e-08 -1.23409e-09 -7.05947e-10 -2.42803e-09 -2.10088e-08 -7.27205e-10 -1.25204e-09 -3.9779e-09
          -2.11995e-08 -2.38852e-08 -1.77322e-09 -9.29465e-10 -2.31597e-09 -3.52131e-08 -3.23458e-09 -5.01137e-08 -6.47785e-10 -3.85023e-10 -3.23104e-09 -1.88552e-08
          -7.08242e-10 -1.1646e-09 -4.31267e-09 -1.75974e-08 -2.32859e-08 -4.54218e-09 -1.61241e-09 -2.26918e-09 -3.59305e-08 -2.24337e-09 -6.12362e-08 -4.4198e-10
          -2.43763e-10 -5.39903e-09 -1.48298e-08 -8.93611e-10 -1.15264e-09 -4.63555e-09 -1.09788e-08 -1.88961e-08 -9.00126e-09 -2.00189e-09 -2.2765e-09 -3.63183e-08
          -1.2835e-09 -7.18533e-08 -3.41283e-10 -3.68908e-10 -6.50511e-09 -1.08284e-08 -1.66313e-09 -1.37137e-09 -4.63278e-09 -6.164e-09 -1.18982e-08 -1.04548e-08
          -1.61999e-09 -2.35435e-09 -3.70589e-08 -9.35494e-10 -7.84709e-08 -2.18307e-09 -5.40249e-10 -5.95286e-09 -7.26954e-09 -2.82022e-09 -1.82302e-09 -4.81707e-09
          -5.20583e-09 -1.00771e-08 -7.76611e-09 -1.40998e-09 -2.9357e-09 -3.57709e-08 -2.04146e-09 -8.02537e-08 -7.93117e-09 -9.09218e-10 -4.61092e-09 -4.5192e-09
          -5.40897e-09 -2.5961e-09 -4.70346e-09 -5.72416e-09 -1.17736e-08 -4.65035e-09 -1.04572e-09 -3.49509e-09 -3.2316e-08 -9.42171e-10 -7.42426e-08 -1.34739e-08
          -2.27134e-09 -3.05275e-09 -1.85443e-09 -5.96566e-09 -4.04083e-09 -4.09891e-09 -6.869e-09 -1.10993e-08 -2.82859e-09 -1.08446e-09 -4.47649e-09 -3.14805e-08
          -6.08108e-10 -6.62615e-08 -1.58963e-08 -4.13475e-09 -2.68875e-09 -1.38876e-09 -5.35272e-09 -5.82212e-09 -3.45085e-09 -8.80262e-09 -9.17326e-09 -1.67036e-09
          -1.19014e-09 -5.45736e-09 -3.10291e-08 -8.14983e-10 -5.68697e-08 -1.78806e-08 -6.96807e-09 -3.58883e-09 -3.27584e-09 -7.36969e-09 -9.11899e-09 -2.69228e-09
          -9.61788e-09 -7.58817e-09 -1.09238e-09 -1.23465e-09 -7.08148e-09 -2.71818e-08 -1.854e-09 -4.57352e-08 -1.81665e-08 -9.66027e-09 -2.58799e-09 -2.88754e-09
          -6.99783e-09 -1.4068e-08 -2.01359e-09 -9.47238e-09 -6.19826e-09 -9.13412e-10 -1.2963e-09 -1.07058e-08 -2.0081e-08 -2.70564e-09 -3.62509e-08 -1.98163e-08
          -1.32476e-08 -2.34752e-09 -2.50248e-09 -4.72982e-09 -1.75791e-08 -1.61831e-09 -8.68798e-09 -4.9714e-09 -1.22395e-09 -1.16273e-09 -1.35318e-08 -1.34483e-08
          -2.80348e-09 -2.65731e-08 -2.0303e-08 -2.03025e-08 -2.41935e-09 -2.65478e-09 -5.53904e-09 -2.03023e-08 -1.78851e-09 -7.2276e-09 -3.42415e-09 -1.0054e-09
          -9.60261e-10 -1.44903e-08 -8.34903e-09 -2.65689e-09 -1.99349e-08 -1.51092e-08 -3.38103e-08 -2.44739e-09 -2.48037e-09 -6.77786e-09 -2.1551e-08 -2.25346e-09
          -5.65558e-09 -2.72786e-09 -1.16725e-09 -9.39083e-10 -1.3921e-08 -5.4369e-09 -2.58697e-09 -1.60253e-08 -7.53174e-09 -4.42409e-08 -2.69014e-09 -3.0783e-09
          -8.3078e-09 -2.27973e-08 -2.51284e-09 -3.72966e-09 -1.84824e-09 -1.29718e-09 -1.06866e-09 -1.0998e-08 -4.79503e-09 -2.87033e-09 -1.53291e-08 -4.78165e-09
          -4.64553e-08 -3.42065e-09 -4.67044e-09 -9.31157e-09 -2.44299e-08 -3.56645e-09 -1.83104e-09 -9.92741e-10 -9.14728e-10 -9.82704e-10 -6.38567e-09 -4.39856e-09
          -3.09113e-09 -1.64597e-08 -4.62867e-09 -4.16089e-08 -5.66702e-09 -8.06572e-09 -1.29206e-08 -2.59077e-08 -4.50617e-09 -5.67265e-10 -4.21284e-10 -3.12584e-10
          -3.13138e-10 -1.77513e-09 -1.89388e-09 -1.54755e-09 -9.53465e-09 -4.78648e-09 -2.42083e-08 -1.03747e-08 -9.0823e-09 -1.03473e-08 -1.44163e-08 -2.41934e-09
        </DataArray>
        <DataArray type="Float32" Name="z[0]" NumberOfComponents="1" format="ascii">
          0.150578 0.150579 0.15058 0.150582 0.150582 0.150583 0.150584 0.150585 0.150585 0.150586 0.150587 0.150588
          0.150589 0.150591 0.150596 0.150581 0.150582 0.150583 0.150585 0.150586 0.150587 0.150587 0.150588 0.150588
          0.150589 0.15059 0.150591 0.150593 0.150595 0.150599 0.150584 0.150585 0.150587 0.150588 0.150589 0.15059
          0.150591 0.150853 0.150592 0.150593 0.150593 0.150595 0.150596 0.150598 0.150602 0.150588 0.150589 0.15059
          0.150591 0.160098 0.232863 0.295258 0.371289 0.150595 0.150596 0.150597 0.150598 0.150599 0.150601 0.150605
          0.150591 0.150592 0.202326 0.425174 0.432424 0.441711 0.419421 0.399038 0.150598 0.150599 0.1506 0.150601
          0.150602 0.150604 0.150609 0.150594 0.150595 0.204896 0.457483 0.470671 0.472837 0.458344 0.440384 0.151488
          0.150602 0.150603 0.150604 0.150605 0.150607 0.150612 0.150597 0.150599 0.209586 0.463372 0.479662 0.484211