<?xml version="1.0"?>
<VTKFile type="UnstructuredGrid" version="0.1" byte_order="LittleEndian">
  <UnstructuredGrid>
    <Piece NumberOfCells="360" NumberOfPoints="800">
      <CellData Scalars="pressure[0]">
        <DataArray type="Float32" Name="pressure[0]" NumberOfComponents="1" format="ascii">
          2.20945e+07 2.21195e+07 2.29426e+07 2.34726e+07 2.38458e+07 2.42054e+07 2.43105e+07 2.43509e+07 2.44032e+07 2.44605e+07 2.45953e+07 2.48004e+07
          2.49574e+07 2.54568e+07 2.60859e+07 2.22055e+07 2.22473e+07 2.30969e+07 2.35667e+07 2.39896e+07 2.4364e+07 2.44442e+07 2.44776e+07 2.45321e+07
          2.45947e+07 2.47725e+07 2.498e+07 2.51191e+07 2.56392e+07 2.62469e+07 2.23285e+07 2.23733e+07 2.3398e+07 2.36947e+07 2.40532e+07 2.44237e+07
          2.45286e+07 2.45771e+07 2.4648e+07 2.47262e+07 2.49554e+07 2.52117e+07 2.53641e+07 2.58568e+07 2.64421e+07 2.24488e+07 2.24947e+07 2.3177e+07
          2.38204e+07 2.41652e+07 2.45265e+07 2.46232e+07 2.4667e+07 2.47674e+07 2.48761e+07 2.52002e+07 2.55225e+07 2.5681e+07 2.61131e+07 2.66776e+07
          2.25704e+07 2.25794e+07 1.98991e+07 2.38923e+07 2.4342e+07 2.47325e+07 2.47965e+07 2.48289e+07 2.49613e+07 2.51572e+07 2.55206e+07 2.58232e+07
          2.59895e+07 2.63999e+07 2.691e+07 2.27971e+07 2.28386e+07 2.35763e+07 2.44261e+07 2.47346e+07 2.50007e+07 2.50446e+07 2.50786e+07 2.52421e+07
          2.55531e+07 2.59053e+07 2.60987e+07 2.62772e+07 2.66864e+07 2.71669e+07 2.30885e+07 2.31417e+07 2.42536e+07 2.49085e+07 2.51264e+07 2.53086e+07
          2.53516e+07 2.53875e+07 2.55388e+07 2.59304e+07 2.62533e+07 2.63449e+07 2.65153e+07 2.69937e+07 2.75126e+07 2.34692e+07 2.35265e+07 2.45688e+07
          2.52934e+07 2.54932e+07 2.56246e+07 2.56627e+07 2.56958e+07 2.58681e+07 2.62397e+07 2.64955e+07 2.657e+07 2.67944e+07 2.73117e+07 2.79783e+07
          2.39388e+07 2.40004e+07 2.4791e+07 2.55951e+07 2.58394e+07 2.59428e+07 2.60007e+07 2.6058e+07 2.62507e+07 2.65767e+07 2.67459e+07 2.67889e+07
          2.70166e+07 2.76731e+07 2.84445e+07 2.44261e+07 2.45101e+07 2.49625e+07 2.56638e+07 2.61289e+07 2.62202e+07 2.63446e+07 2.64679e+07 2.66388e+07
          2.69045e+07 2.70413e+07 2.70838e+07 2.733e+07 2.80445e+07 2.87346e+07 2.50637e+07 2.51733e+07 2.54634e+07 2.59731e+07 2.63686e+07 2.6438e+07
          2.66304e+07 2.68179e+07 2.69696e+07 2.7195e+07 2.73423e+07 2.73996e+07 2.76269e+07 2.83751e+07 2.89569e+07 2.57629e+07 2.58365e+07 2.5971e+07
          2.63117e+07 2.66018e+07 2.66494e+07 2.69123e+07 2.7165e+07 2.72801e+07 2.74744e+07 2.76417e+07 2.77325e+07 2.8003e+07 2.87351e+07 2.91928e+07
          2.62812e+07 2.63326e+07 2.63872e+07 2.66716e+07 2.69048e+07 2.69515e+07 2.724e+07 2.75146e+07 2.75936e+07 2.77656e+07 2.79619e+07 2.81913e+07
          2.85286e+07 2.91242e+07 2.94301e+07 2.66861e+07 2.6736e+07 2.68014e+07 2.71166e+07 2.73337e+07 2.73803e+07 2.76198e+07 2.78507e+07 2.79089e+07
          2.80131e+07 2.81651e+07 2.8623e+07 2.91743e+07 2.95462e+07 2.9825e+07 2.70141e+07 2.7052e+07 2.72377e+07 2.7582e+07 2.77384e+07 2.77825e+07
          2.79516e+07 2.81199e+07 2.81772e+07 2.82508e+07 2.8397e+07 2.90781e+07 2.97453e+07 3.01549e+07 3.03292e+07 2.73091e+07 2.7354e+07 2.7606e+07
          2.79216e+07 2.80208e+07 2.80634e+07 2.81442e+07 2.841e+07 2.84418e+07 2.84933e+07 2.88676e+07 2.97579e+07 3.04194e+07 3.08904e+07 3.08477e+07
          2.76073e+07 2.76591e+07 2.79032e+07 2.81907e+07 2.82822e+07 2.83224e+07 2.84979e+07 2.86573e+07 2.8706e+07 2.87721e+07 2.9273e+07 3.04067e+07
          3.11762e+07 3.15805e+07 3.13495e+07 2.7871e+07 2.79222e+07 2.81172e+07 2.84966e+07 2.86449e+07 2.8688e+07 2.8812e+07 2.89192e+07 2.89737e+07
          2.90361e+07 2.96727e+07 3.09005e+07 3.16965e+07 3.20008e+07 3.18653e+07 2.81852e+07 2.82478e+07 2.84398e+07 2.87681e+07 2.89422e+07 2.89898e+07
          2.909e+07 2.91769e+07 2.92258e+07 2.92856e+07 2.99955e+07 3.13685e+07 3.21887e+07 3.24008e+07 3.26185e+07 2.84412e+07 2.84994e+07 2.86945e+07
          2.90215e+07 2.91899e+07 2.92384e+07 2.93317e+07 2.94102e+07 2.94594e+07 2.9528e+07 3.02356e+07 3.17596e+07 3.26663e+07 3.28235e+07 3.33409e+07
          2.86563e+07 2.87234e+07 2.8885e+07 2.91912e+07 2.94018e+07 2.94573e+07 2.95574e+07 2.964e+07 2.9711e+07 2.98024e+07 3.08147e+07 3.2453e+07
          3.31044e+07 3.32745e+07 3.39041e+07 2.88622e+07 2.89326e+07 2.90783e+07 2.9382e+07 2.95989e+07 2.9662e+07 2.97803e+07 2.98765e+07 2.99732e+07
          3.00811e+07 3.14589e+07 3.31687e+07 3.35617e+07 3.37783e+07 3.44545e+07 2.9049e+07 2.91131e+07 2.92918e+07 2.96165e+07 2.97957e+07 2.98708e+07
          3.00127e+07 3.01262e+07 3.02561e+07 3.03953e+07 3.19987e+07 3.37521e+07 3.4088e+07 3.43361e+07 3.4835e+07 2.92184e+07 2.92792e+07 2.94368e+07
          2.97676e+07 3.00027e+07 3.00798e+07 3.02413e+07 3.03752e+07 3.05381e+07 3.07327e+07 3.25997e+07 3.42512e+07 3.4628e+07 3.48496e+07 3.51652e+07
        </DataArray>
        <DataArray type="Float32" Name="pressure[1]" NumberOfComponents="1" format="ascii">
          2.20945e+07 2.21195e+07 2.29426e+07 2.34726e+07 2.38458e+07 2.42054e+07 2.43105e+07 2.43509e+07 2.44032e+07 2.44605e+07 2.45953e+07 2.48004e+07
          2.49574e+07 2.54568e+07 2.60859e+07 2.22055e+07 2.22473e+07 2.30969e+07 2.35667e+07 2.39896e+07 2.4364e+07 2.44442e+07 2.44776e+07 2.45321e+07
          2.45947e+07 2.47725e+07 2.498e+07 2.51191e+07 2.56392e+07 2.62469e+07 2.23285e+07 2.23733e+07 2.3398e+07 2.36947e+07 2.40532e+07 2.44237e+07
          2.45286e+07 2.45771e+07 2.4648e+07 2.47262e+07 2.49554e+07 2.52117e+07 2.53641e+07 2.58568e+07 2.64421e+07 2.24488e+07 2.24947e+07 2.3177e+07
          2.38204e+07 2.41652e+07 2.45265e+07 2.46232e+07 2.4667e+07 2.47674e+07 2.48761e+07 2.52002e+07 2.55225e+07 2.5681e+07 2.61131e+07 2.66776e+07
          2.25704e+07 2.25794e+07 1.98991e+07 2.38923e+07 2.4342e+07 2.47325e+07 2.47965e+07 2.48289e+07 2.49613e+07 2.51572e+07 2.55206e+07 2.58232e+07
          2.59895e+07 2.63999e+07 2.691e+07 2.27971e+07 2.28386e+07 2.35763e+07 2.44261e+07 2.47346e+07 2.50007e+07 2.50446e+07 2.50786e+07 2.52421e+07
          2.55531e+07 2.59053e+07 2.60987e+07 2.62772e+07 2.66864e+07 2.71669e+07 2.30885e+07 2.31417e+07 2.42536e+07 2.49085e+07 2.51264e+07 2.53086e+07
          2.53516e+07 2.53875e+07 2.55388e+07 2.59304e+07 2.62533e+07 2.63449e+07 2.65153e+07 2.69937e+07 2.75126e+07 2.34692e+07 2.35265e+07 2.45688e+07
          2.52934e+07 2.54932e+07 2.56246e+07 2.56627e+07 2.56958e+07 2.58681e+07 2.62397e+07 2.64955e+07 2.657e+07 2.67944e+07 2.73117e+07 2.79783e+07
          2.39388e+07 2.40004e+07 2.4791e+07 2.55951e+07 2.58394e+07 2.59428e+07 2.60007e+07 2.6058e+07 2.62507e+07 2.65767e+07 2.67459e+07 2.67889e+07
          2.70166e+07 2.76731e+07 2.84445e+07 2.44261e+07 2.45101e+07 2.49625e+07 2.56638e+07 2.61289e+07 2.62202e+07 2.63446e+07 2.64679e+07 2.66388e+07
          2.69045e+07 2.70413e+07 2.70838e+07 2.733e+07 2.80445e+07 2.87346e+07 2.50637e+07 2.51733e+07 2.54634e+07 2.59731e+07 2.63686e+07 2.6438e+07
          2.66304e+07 2.68179e+07 2.69696e+07 2.7195e+07 2.73423e+07 2.73996e+07 2.76269e+07 2.83751e+07 2.89569e+07 2.57629e+07 2.58365e+07 2.5971e+07
          2.63117e+07 2.66018e+07 2.66494e+07 2.69123e+07 2.7165e+07 2.72801e+07 2.74744e+07 2.76417e+07 2.77325e+07 2.8003e+07 2.87351e+07 2.91928e+07
          2.62812e+07 2.63326e+07 2.63872e+07 2.66716e+07 2.69048e+07 2.69515e+07 2.724e+07 2.75146e+07 2.75936e+07 2.77656e+07 2.79619e+07 2.81913e+07
          2.85286e+07 2.91242e+07 2.94301e+07 2.66861e+07 2.6736e+07 2.68014e+07 2.71166e+07 2.73337e+07 2.73803e+07 2.76198e+07 2.78507e+07 2.79089e+07
          2.80131e+07 2.81651e+07 2.8623e+07 2.91743e+07 2.95462e+07 2.9825e+07 2.70141e+07 2.7052e+07 2.72377e+07 2.7582e+07 2.77384e+07 2.77825e+07
          2.79516e+07 2.81199e+07 2.81772e+07 2.82508e+07 2.8397e+07 2.90781e+07 2.97453e+07 3.01549e+07 3.03292e+07 2.73091e+07 2.7354e+07 2.7606e+07
          2.79216e+07 2.80208e+07 2.80634e+07 2.81442e+07 2.841e+07 2.84418e+07 2.84933e+07 2.88676e+07 2.97579e+07 3.04194e+07 3.08904e+07 3.08477e+07
          2.76073e+07 2.76591e+07 2.79032e+07 2.81907e+07 2.82822e+07 2.83224e+07 2.84979e+07 2.86573e+07 2.8706e+07 2.87721e+07 2.9273e+07 3.04067e+07
          3.11762e+07 3.15805e+07 3.13495e+07 2.7871e+07 2.79222e+07 2.81172e+07 2.84966e+07 2.86449e+07 2.8688e+07 2.8812e+07 2.89192e+07 2.89737e+07
          2.90361e+07 2.96727e+07 3.09005e+07 3.16965e+07 3.20008e+07 3.18653e+07 2.81852e+07 2.82478e+07 2.84398e+07 2.87681e+07 2.89422e+07 2.89898e+07
          2.909e+07 2.91769e+07 2.92258e+07 2.92856e+07 2.99955e+07 3.13685e+07 3.21887e+07 3.24008e+07 3.26185e+07 2.84412e+07 2.84994e+07 2.86945e+07
          2.90215e+07 2.91899e+07 2.92384e+07 2.93317e+07 2.94102e+07 2.94594e+07 2.9528e+07 3.02356e+07 3.17596e+07 3.26663e+07 3.28235e+07 3.33409e+07
          2.86563e+07 2.87234e+07 2.8885e+07 2.91912e+07 2.94018e+07 2.94573e+07 2.95574e+07 2.964e+07 2.9711e+07 2.98024e+07 3.08147e+07 3.2453e+07
          3.31044e+07 3.32745e+07 3.39041e+07 2.88622e+07 2.89326e+07 2.90783e+07 2.9382e+07 2.95989e+07 2.9662e+07 2.97803e+07 2.98765e+07 2.99732e+07
          3.00811e+07 3.14589e+07 3.31687e+07 3.35617e+07 3.37783e+07 3.44545e+07 2.9049e+07 2.91131e+07 2.92918e+07 2.96165e+07 2.97957e+07 2.98708e+07
          3.00127e+07 3.01262e+07 3.02561e+07 3.03953e+07 3.19987e+07 3.37521e+07 3.4088e+07 3.43361e+07 3.4835e+07 2.92184e+07 2.92792e+07 2.94368e+07
          2.97676e+07 3.00027e+07 3.00798e+07 3.02413e+07 3.03752e+07 3.05381e+07 3.07327e+07 3.25997e+07 3.42512e+07 3.4628e+07 3.48496e+07 3.51652e+07
        </DataArray>
        <DataArray type="Float32" Name="pressure[2]" NumberOfComponents="1" format="ascii">
          2.20945e+07 2.21195e+07 2.29426e+07 2.34726e+07 2.38458e+07 2.42054e+07 2.43105e+07 2.43509e+07 2.44032e+07 2.44605e+07 2.45953e+07 2.48004e+07
          2.49574e+07 2.54568e+07 2.60859e+07 2.22055e+07 2.22473e+07 2.30969e+07 2.35667e+07 2.39896e+07 2.4364e+07 2.44442e+07 2.44776e+07 2.45321e+07
          2.45947e+07 2.47725e+07 2.498e+07 2.51191e+07 2.56392e+07 2.62469e+07 2.23285e+07 2.23733e+07 2.3398e+07 2.36947e+07 2.40532e+07 2.44237e+07
          2.45286e+07 2.45771e+07 2.4648e+07 2.47262e+07 2.49554e+07 2.52117e+07 2.53641e+07 2.58568e+07 2.64421e+07 2.24488e+07 2.24947e+07 2.3177e+07
          2.38204e+07 2.41652e+07 2.45265e+07 2.46232e+07 2.4667e+07 2.47674e+07 2.48761e+07 2.52002e+07 2.55225e+07 2.5681e+07 2.61131e+07 2.66776e+07
          2.25704e+07 2.25794e+07 1.98991e+07 2.38923e+07 2.4342e+07 2.47325e+07 2.47965e+07 2.48289e+07 2.49613e+07 2.51572e+07 2.55206e+07 2.58232e+07
          2.59895e+07 2.63999e+07 2.691e+07 2.27971e+07 2.28386e+07 2.35763e+07 2.44261e+07 2.47346e+07 2.50007e+07 2.50446e+07 2.50786e+07 2.52421e+07
          2.55531e+07 2.59053e+07 2.60987e+07 2.62772e+07 2.66864e+07 2.71669e+07 2.30885e+07 2.31417e+07 2.42536e+07 2.49085e+07 2.51264e+07 2.53086e+07
          2.53516e+07 2.53875e+07 2.55388e+07 2.59304e+07 2.62533e+07 2.63449e+07 2.65153e+07 2.69937e+07 2.75126e+07 2.34692e+07 2.35265e+07 2.45688e+07
          2.52934e+07 2.54932e+07 2.56246e+07 2.56627e+07 2.56958e+07 2.58681e+07 2.62397e+07 2.64955e+07 2.657e+07 2.67944e+07 2.73117e+07 2.79783e+07
          2.39388e+07 2.40004e+07 2.4791e+07 2.55951e+07 2.58394e+07 2.59428e+07 2.60007e+07 2.6058e+07 2.62507e+07 2.65767e+07 2.67459e+07 2.67889e+07
          2.70166e+07 2.76731e+07 2.84445e+07 2.44261e+07 2.45101e+07 2.49625e+07 2.56638e+07 2.61289e+07 2.62202e+07 2.63446e+07 2.64679e+07 2.66388e+07
          2.69045e+07 2.70413e+07 2.70838e+07 2.733e+07 2.80445e+07 2.87346e+07 2.50637e+07 2.51733e+07 2.54634e+07 2.59731e+07 2.63686e+07 2.6438e+07
          2.66304e+07 2.68179e+07 2.69696e+07 2.7195e+07 2.73423e+07 2.73996e+07 2.76269e+07 2.83751e+07 2.89569e+07 2.57629e+07 2.58365e+07 2.5971e+07
          2.63117e+07 2.66018e+07 2.66494e+07 2.69123e+07 2.7165e+07 2.72801e+07 2.74744e+07 2.76417e+07 2.77325e+07 2.8003e+07 2.87351e+07 2.91928e+07
          2.62812e+07 2.63326e+07 2.63872e+07 2.66716e+07 2.69048e+07 2.69515e+07 2.724e+07 2.75146e+07 2.75936e+07 2.77656e+07 2.79619e+07 2.81913e+07
          2.85286e+07 2.91242e+07 2.94301e+07 2.66861e+07 2.6736e+07 2.68014e+07 2.71166e+07 2.73337e+07 2.73803e+07 2.76198e+07 2.78507e+07 2.79089e+07
          2.80131e+07 2.81651e+07 2.8623e+07 2.91743e+07 2.95462e+07 2.9825e+07 2.70141e+07 2.7052e+07 2.72377e+07 2.7582e+07 2.77384e+07 2.77825e+07
          2.79516e+07 2.81199e+07 2.81772e+07 2.82508e+07 2.8397e+07 2.90781e+07 2.97453e+07 3.01549e+07 3.03292e+07 2.73091e+07 2.7354e+07 2.7606e+07
          2.79216e+07 2.80208e+07 2.80634e+07 2.81442e+07 2.841e+07 2.84418e+07 2.84933e+07 2.88676e+07 2.97579e+07 3.04194e+07 3.08904e+07 3.08477e+07
          2.76073e+07 2.76591e+07 2.79032e+07 2.81907e+07 2.82822e+07 2.83224e+07 2.84979e+07 2.86573e+07 2.8706e+07 2.87721e+07 2.9273e+07 3.04067e+07
          3.11762e+07 3.15805e+07 3.13495e+07 2.7871e+07 2.79222e+07 2.81172e+07 2.84966e+07 2.86449e+07 2.8688e+07 2.8812e+07 2.89192e+07 2.89737e+07
          2.90361e+07 2.96727e+07 3.09005e+07 3.16965e+07 3.20008e+07 3.18653e+07 2.81852e+07 2.82478e+07 2.84398e+07 2.87681e+07 2.89422e+07 2.89898e+07
          2.909e+07 2.91769e+07 2.92258e+07 2.92856e+07 2.99955e+07 3.13685e+07 3.21887e+07 3.24008e+07 3.26185e+07 2.84412e+07 2.84994e+07 2.86945e+07
          2.90215e+07 2.91899e+07 2.92384e+07 2.93317e+07 2.94102e+07 2.94594e+07 2.9528e+07 3.02356e+07 3.17596e+07 3.26663e+07 3.28235e+07 3.33409e+07
          2.86563e+07 2.87234e+07 2.8885e+07 2.91912e+07 2.94018e+07 2.94573e+07 2.95574e+07 2.964e+07 2.9711e+07 2.98024e+07 3.08147e+07 3.2453e+07
          3.31044e+07 3.32745e+07 3.39041e+07 2.88622e+07 2.89326e+07 2.90783e+07 2.9382e+07 2.95989e+07 2.9662e+07 2.97803e+07 2.98765e+07 2.99732e+07
          3.00811e+07 3.14589e+07 3.31687e+07 3.35617e+07 3.37783e+07 3.44545e+07 2.9049e+07 2.91131e+07 2.92918e+07 2.96165e+07 2.97957e+07 2.98708e+07
          3.00127e+07 3.01262e+07 3.02561e+07 3.03953e+07 3.19987e+07 3.37521e+07 3.4088e+07 3.43361e+07 3.4835e+07 2.92184e+07 2.92792e+07 2.94368e+07
          2.97676e+07 3.00027e+07 3.00798e+07 3.02413e+07 3.03752e+07 3.05381e+07 3.07327e+07 3.25997e+07 3.42512e+07 3.4628e+07 3.48496e+07 3.51652e+07
        </DataArray>
        <DataArray type="Float32" Name="velocity[0]" NumberOfComponents="1" format="ascii">
          1.24599e-09 6.60139e-08 -1.48449e-10 1.49186e-08 -2.75545e-11 -8.66053e-10 1.99721e-09 3.23564e-09 5.28768e-09 2.09789e-09 -1.20361e-09 -1.53484e-09
          -1.16009e-09 -4.50063e-10 -2.05126e-09 2.25964e-09 1.90096e-07 -1.16929e-09 3.84796e-08 9.98264e-10 4.54719e-09 1.63358e-08 1.2237e-08 1.30781e-08
          3.89754e-09 -2.20162e-09 -7.42563e-09 -4.85301e-09 -1.33252e-09 -5.43264e-09 7.29005e-09 2.76612e-07 4.33362e-10 1.02777e-07 1.8175e-09 9.37392e-09
          2.50087e-08 2.04803e-08 1.07865e-08 1.06436e-09 -2.76444e-09 -2.03048e-08 -7.30311e-09 -2.86532e-09 -8.14605e-09 1.94484e-08 3.23078e-07 1.29056e-08
          2.37799e-07 -7.86727e-10 -8.7567e-09 -2.05176e-09 3.96751e-09 2.28352e-10 -7.57707e-09 -4.28621e-09 -3.55685e-08 -5.29432e-09 -4.25318e-09 -1.11492e-08
          -9.97553e-08 -9.61409e-09 -1.12022e-09 -1.4018e-07 -2.22825e-08 -8.42368e-08 -8.72536e-08 -8.03096e-08 -5.78524e-09 -1.05162e-08 -6.44315e-09 -6.0283e-08
          -2.63547e-09 -3.89341e-09 -1.37725e-08 -2.352e-07 -3.15588e-07 -1.46486e-08 -4.0754e-07 -4.96902e-08 -2.79532e-07 -1.46766e-07 -2.40234e-07 -5.25295e-09
          -5.0895e-09 -9.59815e-09 -8.70877e-08 -1.52096e-09 -3.07871e-09 -1.55369e-08 -2.26788e-07 -2.50941e-07 -2.9464e-09 -1.26816e-07 -4.54698e-08 -4.86763e-07
          -1.28177e-07 -4.27081e-07 -4.30923e-09 -2.19627e-09 -1.146e-08 -1.03893e-07 -1.33338e-09 -3.04019e-09 -1.67567e-08 -1.92422e-07 -2.11221e-07 -1.45636e-09
          -2.13902e-08 -2.67705e-08 -5.6499e-07 -7.90518e-08 -5.89858e-07 -3.80391e-09 -1.69149e-09 -1.26643e-08 -1.1463e-07 -1.10796e-09 -3.17055e-09 -1.81397e-08
          -1.6181e-07 -1.76508e-07 -8.92819e-10 -2.75515e-09 -1.75352e-08 -5.66304e-07 -3.08944e-08 -7.19419e-07 -2.99592e-09 -1.8429e-09 -2.10892e-08 -1.10016e-07
          -1.03926e-09 -2.93179e-09 -1.9971e-08 -1.23587e-07 -1.52504e-07 -7.09651e-09 -1.74307e-10 -1.25765e-08 -5.38193e-07 -9.94778e-09 -8.48661e-07 -2.52594e-09
          -1.8895e-09 -3.56993e-08 -9.37223e-08 -1.72198e-09 -2.61689e-09 -2.17883e-08 -8.64194e-08 -1.3878e-07 -1.78932e-08 -1.25448e-09 -1.17388e-08 -5.01039e-07
          -3.27531e-09 -9.55142e-07 -4.8463e-09 -2.36525e-09 -4.397e-08 -7.87669e-08 -5.13903e-09 -3.32327e-09 -2.33901e-08 -6.711e-08 -1.28066e-07 -2.43706e-08
          -1.01229e-09 -1.82093e-08 -4.69703e-07 -2.52303e-09 -9.55334e-07 -2.32699e-08 -4.26813e-09 -4.29685e-08 -6.33332e-08 -2.09921e-08 -6.80143e-09 -2.49502e-08
          -5.92607e-08 -1.24017e-07 -2.13058e-08 -1.96777e-09 -2.83349e-08 -4.10268e-07 -3.34336e-09 -8.62038e-07 -7.84823e-08 -6.78776e-09 -2.60756e-08 -3.46286e-08
          -5.38881e-08 -1.9739e-08 -2.67785e-08 -5.64906e-08 -1.26659e-07 -1.1898e-08 -3.88891e-09 -3.75369e-08 -3.50709e-07 -3.36342e-09 -7.03713e-07 -1.37096e-07
          -1.65619e-08 -1.28413e-08 -1.15329e-08 -7.52522e-08 -4.1873e-08 -2.80487e-08 -6.10706e-08 -1.12667e-07 -6.0254e-09 -4.7686e-09 -4.73344e-08 -3.26092e-07
          -1.91972e-09 -4.11808e-07 -2.07643e-07 -4.08646e-08 -1.37712e-08 -7.40806e-09 -7.64954e-08 -6.67296e-08 -2.80703e-08 -6.84069e-08 -8.59625e-08 -4.01777e-09
          -5.72479e-09 -5.82993e-08 -3.12147e-07 -2.11318e-09 -2.96017e-07 -2.01258e-07 -6.15794e-08 -9.46159e-09 -8.53034e-09 -7.12755e-08 -9.56353e-08 -2.61488e-08
          -6.73472e-08 -6.30196e-08 -3.18558e-09 -6.30661e-09 -7.86817e-08 -2.7577e-07 -4.48656e-09 -3.57786e-07 -1.41035e-07 -7.57855e-08 -5.09629e-09 -7.62604e-09
          -4.71943e-08 -1.34238e-07 -2.21478e-08 -6.13504e-08 -4.28387e-08 -3.5362e-09 -4.34755e-09 -1.09828e-07 -2.00733e-07 -6.70046e-09 -3.00599e-07 -1.51908e-07
          -1.01704e-07 -3.5322e-09 -4.88378e-09 -2.77824e-08 -1.70131e-07 -1.80354e-08 -5.45509e-08 -2.76453e-08 -3.74736e-09 -2.41277e-09 -1.31814e-07 -1.253e-07
          -7.01202e-09 -2.22235e-07 -1.54108e-07 -1.59635e-07 -2.06712e-09 -3.89057e-09 -3.46366e-08 -1.9121e-07 -1.62646e-08 -4.69545e-08 -1.92626e-08 -2.12636e-09
          -1.0656e-09 -1.37999e-07 -6.9962e-08 -5.80663e-09 -1.65071e-07 -1.00455e-07 -2.7712e-07 -3.49268e-09 -5.37817e-09 -5.10477e-08 -2.00859e-07 -1.78939e-08
          -3.65628e-08 -1.29752e-08 -1.66964e-09 -3.71014e-10 -1.27048e-07 -3.59818e-08 -4.93783e-09 -1.3071e-07 -4.21412e-08 -3.83946e-07 -5.41854e-09 -9.82447e-09
          -6.21357e-08 -2.08349e-07 -2.09061e-08 -2.32632e-08 -6.72737e-09 -2.35492e-09 -9.77881e-10 -9.30408e-08 -2.4043e-08 -4.76912e-09 -1.22684e-07 -2.28061e-08
          -4.05165e-07 -4.96383e-09 -1.89874e-08 -6.7798e-08 -2.16288e-07 -2.6167e-08 -1.09832e-08 -2.74841e-09 -1.07379e-09 -6.60162e-10 -4.58966e-08 -1.76498e-08
          -3.87184e-09 -1.27989e-07 -1.82854e-08 -3.48513e-07 -6.89449e-09 -3.27828e-08 -8.79414e-08 -2.24215e-07 -3.43591e-08 -2.93656e-09 -6.31559e-10 1.93688e-10
          4.39514e-11 -1.06068e-08 -6.67484e-09 -1.40773e-09 -6.48353e-08 -8.49401e-09 -1.50541e-07 -4.544e-09 -1.98788e-08 -5.22556e-08 -1.14952e-07 -1.93233e-08
        </DataArray>
        <DataArray type="Float32" Name="velocity[1]" NumberOfComponents="1" format="ascii">
          -1.93642e-25 1.18561e-23 1.28306e-24 2.31853e-24 4.28229e-27 0 -3.1039e-25 -1.01359e-25 6.85936e-25 4.44948e-24 -3.69403e-24 2.51787e-25
          1.79626e-24 -7.20795e-25 3.14501e-25 3.61089e-26 7.62105e-24 1.24482e-24 1.34312e-24 -9.13881e-25 7.59411e-24 -5.21613e-25 -7.40495e-25 -6.78146e-24
          -1.25063e-24 0 -3.43849e-27 2.69707e-27 2.86666e-27 2.06717e-25 -8.17895e-25 -1.39327e-23 -3.08719e-24 8.64937e-24 -1.30686e-24 0
          -1.933e-25 -8.31119e-25 -7.45085e-25 0 5.44875e-24 -8.28529e-24 0 8.77359e-25 -2.237e-25 -1.02044e-24 2.32116e-23 -1.68857e-24
          -2.27993e-23 1.08416e-25 1.40319e-23 -2.2882e-23 2.94688e-23 -4.03577e-24 9.78428e-25 2.5551e-24 -3.50558e-24 2.46739e-24 -1.0245e-24 7.59624e-25
          -1.08023e-24 -1.09009e-22 1.03862e-23 1.60508e-23 -1.26842e-24 -1.00419e-23 9.60237e-25 -3.5969e-27 -5.09712e-26 -4.80554e-24 3.11689e-24 -5.58998e-24
          -3.33261e-27 9.73181e-26 -1.14818e-24 -1.2438e-24 1.39051e-23 -3.97561e-26 1.37813e-23 4.34159e-25 -2.12336e-23 0 -5.24357e-27 1.11728e-25
          3.47279e-25 -2.85401e-25 4.14986e-24 -1.16821e-24 6.90094e-25 1.13949e-24 -1.54593e-24 4.49161e-24 0 1.40281e-23 -1.93465e-24 -3.43733e-23
          -8.14436e-27 -5.53746e-27 -2.02879e-24 3.64422e-27 -3.22792e-27 -3.08732e-27 3.3459e-26 -3.21279e-27 -1.26644e-24 -1.05777e-24 1.59211e-23 1.46798e-24
          4.55805e-24 -5.64141e-27 4.21663e-23 -7.02122e-27 -6.11384e-27 9.82882e-26 -2.36055e-26 -2.37634e-24 -8.36109e-24 -3.27883e-27 -3.01923e-25 1.48138e-24
          -3.07874e-24 -9.60216e-24 -2.28614e-25 -2.03848e-24 -4.67537e-25 4.88606e-24 0 0 -4.99375e-25 3.45068e-27 7.15122e-25 2.29328e-24
          -6.49774e-27 3.12089e-26 -3.799e-27 -1.14856e-23 2.20291e-24 1.66873e-24 -2.04702e-25 -2.79996e-24 6.60914e-24 -1.24216e-23 1.09237e-23 6.66597e-25
          -7.16918e-27 -6.23375e-25 2.23164e-24 -7.03972e-25 0 -1.62235e-24 3.65762e-24 4.33361e-27 6.70114e-25 -1.13242e-25 2.31189e-24 6.77729e-27
          -8.36784e-24 1.1276e-23 3.69401e-25 7.35235e-26 6.90364e-25 5.0947e-24 1.83421e-24 -2.22136e-25 1.11068e-25 -4.72036e-24 1.87975e-24 -3.48417e-25
          -2.50168e-26 -7.00411e-25 -3.5239e-23 4.63987e-26 -5.59481e-24 -5.3185e-25 -2.29307e-25 -2.24154e-24 4.14986e-24 -1.75391e-24 1.01515e-24 -1.38532e-25
          4.48505e-24 9.48338e-24 0 -1.41876e-25 7.32231e-25 6.74652e-24 7.50659e-26 -8.89163e-24 -6.07888e-24 -4.25861e-27 -8.64962e-25 -1.19029e-24
          3.12427e-24 -7.4076e-25 3.47247e-27 -1.9958e-25 4.39924e-27 7.43366e-25 -3.08282e-25 -8.10026e-27 2.81128e-23 -8.38855e-26 -1.57023e-23 1.53891e-23
          -9.36181e-24 8.6844e-25 6.23805e-24 -1.08298e-23 -2.4023e-27 -2.20721e-24 -4.28636e-24 -7.61694e-24 -3.8388e-27 3.80537e-25 8.2887e-25 6.34169e-27
          -1.46394e-25 -6.2876e-23 1.47658e-23 0 0 6.02054e-25 1.07758e-23 -1.93282e-24 4.3594e-24 0 1.88226e-24 0
          -5.29139e-25 8.66714e-25 6.43623e-27 1.76461e-25 1.16628e-23 4.47589e-28 -2.95267e-28 -2.48006e-27 4.5982e-24 -5.40377e-27 -1.97953e-24 -2.16157e-24
          3.12993e-27 1.67987e-24 -3.39541e-27 8.24232e-26 2.28885e-24 -1.42967e-23 0 -1.01594e-23 0 1.41651e-27 3.5918e-24 -4.55353e-24
          -2.93429e-24 2.17147e-27 1.537e-24 0 4.05533e-24 0 4.51284e-25 2.01217e-24 7.4991e-24 1.54704e-25 -6.82288e-24 -7.17831e-24
          -2.61568e-24 2.37216e-25 1.12897e-25 -1.67595e-27 -2.05686e-24 -1.26591e-24 3.97982e-24 -1.59436e-24 1.94146e-24 -1.76264e-24 8.65522e-25 1.21612e-23
          -1.06575e-25 -5.35595e-24 1.28649e-23 6.69355e-24 -4.00987e-24 9.77938e-26 1.15039e-24 -2.09571e-27 1.2618e-24 -2.70674e-27 -3.45287e-24 7.32279e-25
          -1.66918e-24 1.88082e-25 -3.74281e-24 -1.64692e-25 -7.05923e-24 -6.55095e-24 1.188e-23 3.32406e-25 4.35571e-24 1.39727e-24 -5.19267e-25 -1.00447e-24
          -9.52627e-25 5.83445e-25 0 -3.16318e-26 -1.79434e-24 5.36658e-24 -9.44604e-24 9.43696e-24 -7.02151e-24 5.18053e-27 0 0
          3.26026e-25 -2.14793e-27 1.72993e-24 -1.11429e-24 -1.14762e-24 1.07711e-24 -1.80875e-24 -1.85774e-24 -1.70971e-24 3.19809e-26 5.65302e-25 -4.53505e-24
          1.6534e-23 -3.27668e-25 -8.03305e-24 5.53173e-25 1.21704e-24 -1.89113e-27 -7.96696e-25 2.82372e-27 3.14251e-27 1.24446e-25 -3.83293e-24 6.64181e-25
          -1.64175e-25 1.23291e-23 -5.16282e-24 0 -3.40898e-25 -1.08275e-24 8.11907e-24 -8.84633e-25 0 -4.53872e-25 2.82444e-27 -3.67782e-25
          6.36071e-25 -1.65148e-24 -2.55349e-24 -4.30583e-25 -3.575e-24 1.32007e-24 -3.63986e-23 0 3.65984e-23 -2.70871e-23 2.2545e-23 5.70371e-25
        </DataArray>
        <DataArray type="Float32" Name="velocity[2]" NumberOfComponents="1" format="ascii">
          6.37726e-10 9.68951e-09 -4.03571e-09 -1.04563e-09 -3.78219e-09 -3.31207e-09 -2.38539e-09 -2.08651e-09 -1.7945e-09 -2.32913e-09 -2.55881e-09 -2.15569e-09
          -1.82292e-09 -1.54279e-09 -1.05466e-09 9.27867e-10 3.21272e-08 -3.28134e-09 4.32417e-09 -2.23949e-09 -1.44548e-09 4.10639e-10 -5.85242e-10 -4.11664e-10
          -1.74881e-09 -2.4803e-09 -2.96766e-09 -2.08133e-09 -1.21539e-09 -1.4106e-09 1.44239e-09 4.8072e-08 -1.01905e-09 1.5119e-08 -4.975e-09 -3.09561e-09
          1.94116e-10 -3.65105e-10 -1.54338e-09 -2.49214e-09 -2.87106e-09 -5.39983e-09 -2.59827e-09 -1.63293e-09 -1.90687e-09 3.45073e-09 5.64618e-08 1.16237e-09
          3.69798e-08 -8.49684e-09 -8.57622e-09 -5.6611e-09 -3.29972e-09 -2.86007e-09 -3.44138e-09 -2.56462e-09 -7.62412e-09 -2.00795e-09 -1.89992e-09 -2.51496e-09
          -8.72019e-09 9.20443e-09 -1.93007e-09 -3.74069e-08 -2.05439e-08 -2.73511e-08 -2.31903e-08 -1.84112e-08 -3.51116e-09 -4.45338e-09 -3.77005e-09 -1.20937e-08
          -8.96242e-10 -1.26985e-09 -2.7724e-09 -4.0317e-08 -5.51308e-08 -4.15345e-09 -8.29464e-08 -2.8475e-08 -6.20403e-08 -3.23161e-08 -4.63328e-08 -2.41816e-09
          -2.52374e-09 -3.29588e-09 -1.63166e-08 -7.2127e-10 -1.0444e-09 -3.00265e-09 -4.06535e-08 -4.61215e-08 -2.50402e-09 -2.84613e-08 -1.93298e-08 -9.45043e-08
          -2.84025e-08 -7.90826e-08 -2.0818e-09 -1.74152e-09 -3.39114e-09 -1.92021e-08 -6.23516e-10 -8.85192e-10 -3.11684e-09 -3.45839e-08 -3.91191e-08 -2.29564e-09
          -6.14106e-09 -8.15031e-09 -1.03033e-07 -1.78679e-08 -1.06931e-07 -1.72678e-09 -1.36719e-09 -3.22541e-09 -2.09678e-08 -8.09619e-10 -1.19627e-09 -3.51542e-09
          -2.90734e-08 -3.26153e-08 -1.9316e-09 -2.32767e-09 -5.28907e-09 -1.02483e-07 -8.78393e-09 -1.29004e-07 -1.15076e-09 -9.72062e-10 -3.89779e-09 -1.95514e-08
          -7.55532e-10 -1.10115e-09 -3.8314e-09 -2.30853e-08 -2.96783e-08 -3.67598e-09 -1.82127e-09 -4.03847e-09 -9.78446e-08 -5.86798e-09 -1.52036e-07 -9.5831e-10
          -8.43101e-10 -6.34073e-09 -1.66436e-08 -9.31099e-10 -1.07472e-09 -4.1533e-09 -1.61074e-08 -2.64388e-08 -4.97428e-09 -1.67458e-09 -3.47634e-09 -9.04052e-08
          -3.368e-09 -1.70273e-07 -1.59617e-09 -9.98669e-10 -8.25192e-09 -1.46849e-08 -1.85606e-09 -1.19565e-09 -4.36267e-09 -1.22555e-08 -2.37283e-08 -5.55463e-09
          -1.24077e-09 -3.9804e-09 -8.40551e-08 -2.41691e-09 -1.7138e-07 -7.01865e-09 -2.64126e-09 -9.5313e-09 -1.38096e-08 -6.05328e-09 -2.24598e-09 -4.69668e-09
          -1.05468e-08 -2.1959e-08 -4.19445e-09 -1.18758e-09 -5.53547e-09 -7.46481e-08 -4.89797e-09 -1.57825e-07 -1.88348e-08 -3.79971e-09 -8.09919e-09 -1.1707e-08
          -1.4917e-08 -5.84224e-09 -5.04659e-09 -1.00433e-08 -2.24665e-08 -2.56223e-09 -1.45781e-09 -7.09842e-09 -6.28272e-08 -2.35857e-09 -1.28537e-07 -3.01641e-08
          -7.39204e-09 -6.27936e-09 -6.16736e-09 -1.7543e-08 -9.58949e-09 -5.05668e-09 -1.03763e-08 -1.98105e-08 -1.87913e-09 -1.80718e-09 -9.03197e-09 -5.82892e-08
          -1.53968e-09 -7.89287e-08 -4.49502e-08 -1.18511e-08 -6.49326e-09 -5.43502e-09 -1.76349e-08 -1.37481e-08 -4.86012e-09 -1.19628e-08 -1.55633e-08 -1.74317e-09
          -2.01353e-09 -1.09266e-08 -5.56446e-08 -1.2009e-09 -5.09923e-08 -3.57282e-08 -1.43396e-08 -5.17005e-09 -5.14256e-09 -1.64611e-08 -1.84445e-08 -4.07246e-09
          -1.2043e-08 -1.19878e-08 -2.02067e-09 -2.63792e-09 -1.46359e-08 -5.00371e-08 -3.60336e-09 -6.62222e-08 -2.85226e-08 -1.68245e-08 -4.04946e-09 -4.68539e-09
          -1.30597e-08 -2.58835e-08 -3.12132e-09 -1.10479e-08 -8.47983e-09 -1.93865e-09 -2.0759e-09 -1.98645e-08 -3.70752e-08 -4.90989e-09 -5.78585e-08 -3.20002e-08
          -2.16539e-08 -3.71673e-09 -4.02457e-09 -8.12062e-09 -3.1052e-08 -2.60348e-09 -9.83842e-09 -5.60727e-09 -1.74136e-09 -1.58385e-09 -2.41248e-08 -2.41317e-08
          -4.7457e-09 -4.36322e-08 -3.32236e-08 -3.32395e-08 -3.85261e-09 -4.25287e-09 -9.21585e-09 -3.50182e-08 -2.86274e-09 -8.56104e-09 -4.08764e-09 -1.27324e-09
          -1.20999e-09 -2.53653e-08 -1.44604e-08 -4.28654e-09 -3.29894e-08 -2.47317e-08 -5.53583e-08 -3.91667e-09 -3.98672e-09 -1.13123e-08 -3.68278e-08 -3.70984e-09
          -6.85478e-09 -3.2898e-09 -1.43744e-09 -1.15268e-09 -2.40945e-08 -9.10945e-09 -4.10176e-09 -2.65981e-08 -1.22565e-08 -7.22747e-08 -4.31967e-09 -4.96632e-09
          -1.39096e-08 -3.85996e-08 -4.14061e-09 -4.57898e-09 -2.26381e-09 -1.59918e-09 -1.31611e-09 -1.87239e-08 -7.85052e-09 -4.54349e-09 -2.5234e-08 -7.71756e-09
          -7.56997e-08 -5.51322e-09 -7.59167e-09 -1.55502e-08 -4.11199e-08 -5.91696e-09 -2.2763e-09 -1.23717e-09 -1.14012e-09 -1.22815e-09 -1.05563e-08 -7.09023e-09
          -4.88772e-09 -2.67561e-08 -7.4434e-09 -6.7645e-08 -9.16052e-09 -1.31662e-08 -2.13684e-08 -4.33443e-08 -7.48812e-09 -7.12509e-10 -5.31427e-10 -3.9805e-10
          -4.02402e-10 -2.84161e-09 -3.02321e-09 -2.44166e-09 -1.53916e-08 -7.69426e-09 -3.92663e-08 -1.67881e-08 -1.47759e-08 -1.69877e-08 -2.40028e-08 -4.01903e-09
        </DataArray>
        <DataArray type="Float32" Name="z[0]" NumberOfComponents="1" format="ascii">
          0.150578 0.150579 0.15058 0.150582 0.150582 0.150583 0.150584 0.150585 0.150585 0.150586 0.150587 0.150588
          0.150589 0.150591 0.150596 0.150581 0.150582 0.150583 0.150585 0.150586 0.150587 0.150587 0.150588 0.150588
          0.150589 0.15059 0.150591 0.150593 0.150595 0.150599 0.150584 0.150585 0.150587 0.150588 0.150589 0.15059
          0.15059 0.150591 0.150592 0.150593 0.150593 0.150595 0.150596 0.150598 0.150602 0.150588 0.150589 0.15059
          0.150591 0.150592 0.150593 0.150594 0.150594 0.150595 0.150596 0.150597 0.150598 0.150599 0.150601 0.150605
          0.150591 0.150592 0.150593 0.150594 0.150595 0.150596 0.150597 0.150597 0.150598 0.150599 0.1506 0.150601
          0.150602 0.150604 0.150609 0.150594 0.150595 0.150596 0.150597 0.150598 0.150599 0.1506 0.1506 0.150601
          0.150602 0.150603 0.150604 0.150605 0.150607 0.150612 0.150597 0.150598 0.150599 0.150601 0.150601 0.150602