<?xml version="1.0"?>
<VTKFile type="UnstructuredGrid" version="0.1" byte_order="LittleEndian">
  <UnstructuredGrid>
    <Piece NumberOfCells="360" NumberOfPoints="800">
      <CellData Scalars="pressure[0]">
        <DataArray type="Float32" Name="pressure[0]" NumberOfComponents="1" format="ascii">
          2.09336e+07 2.09481e+07 2.14336e+07 2.19433e+07 2.2317e+07 2.2761e+07 2.2905e+07 2.29572e+07 2.30208e+07 2.30912e+07 2.33085e+07 2.36692e+07
          2.3937e+07 2.46014e+07 2.53772e+07 2.09775e+07 2.0992e+07 2.15285e+07 2.20562e+07 2.24703e+07 2.29387e+07 2.3046e+07 2.30866e+07 2.31531e+07
          2.32348e+07 2.35456e+07 2.39143e+07 2.41264e+07 2.48007e+07 2.55449e+07 2.10215e+07 2.1036e+07 2.15974e+07 2.21927e+07 2.25569e+07 2.29961e+07
          2.31273e+07 2.31887e+07 2.32792e+07 2.33972e+07 2.3828e+07 2.42565e+07 2.44532e+07 2.50624e+07 2.57594e+07 2.1066e+07 2.10809e+07 2.1461e+07
          2.23236e+07 2.26738e+07 2.30906e+07 2.32104e+07 2.32663e+07 2.3417e+07 2.36195e+07 2.42045e+07 2.46791e+07 2.48562e+07 2.53687e+07 2.60274e+07
          2.11574e+07 2.11817e+07 1.97752e+07 2.24176e+07 2.28409e+07 2.32862e+07 2.3367e+07 2.34094e+07 2.36857e+07 2.41093e+07 2.46575e+07 2.50813e+07
          2.52536e+07 2.57122e+07 2.62898e+07 2.13533e+07 2.13963e+07 2.18906e+07 2.28374e+07 2.3085e+07 2.3806e+07 2.38817e+07 2.39431e+07 2.42185e+07
          2.46811e+07 2.51786e+07 2.54372e+07 2.56216e+07 2.60594e+07 2.65836e+07 2.16036e+07 2.16533e+07 2.25194e+07 2.33172e+07 2.39224e+07 2.44315e+07
          2.45104e+07 2.4595e+07 2.47635e+07 2.52434e+07 2.56434e+07 2.57462e+07 2.59224e+07 2.6433e+07 2.69925e+07 2.1962e+07 2.20158e+07 2.30904e+07
          2.38883e+07 2.44696e+07 2.50075e+07 2.50691e+07 2.51316e+07 2.52959e+07 2.56787e+07 2.59438e+07 2.60187e+07 2.62566e+07 2.68151e+07 2.75569e+07
          2.24821e+07 2.25452e+07 2.35591e+07 2.43635e+07 2.51954e+07 2.55212e+07 2.56347e+07 2.575e+07 2.58825e+07 2.61225e+07 2.62514e+07 2.62789e+07
          2.65263e+07 2.72426e+07 2.81183e+07 2.31131e+07 2.3217e+07 2.38685e+07 2.45149e+07 2.57321e+07 2.59639e+07 2.62153e+07 2.64536e+07 2.65102e+07
          2.65768e+07 2.6624e+07 2.66505e+07 2.69107e+07 2.76706e+07 2.84509e+07 2.40425e+07 2.41794e+07 2.4462e+07 2.49184e+07 2.61022e+07 2.62839e+07
          2.668e+07 2.70235e+07 2.70549e+07 2.70213e+07 2.70038e+07 2.70388e+07 2.72572e+07 2.80218e+07 2.86976e+07 2.47097e+07 2.47761e+07 2.49425e+07
          2.52952e+07 2.64891e+07 2.6597e+07 2.71451e+07 2.75835e+07 2.7606e+07 2.74459e+07 2.74006e+07 2.74194e+07 2.76352e+07 2.83786e+07 2.94362e+07
          2.51946e+07 2.52658e+07 2.54008e+07 2.5771e+07 2.70123e+07 2.71315e+07 2.77147e+07 2.82176e+07 2.83075e+07 2.81471e+07 2.79149e+07 2.83216e+07
          2.89363e+07 2.99283e+07 3.01603e+07 2.62458e+07 2.62884e+07 2.6168e+07 2.65511e+07 2.78891e+07 2.80055e+07 2.84852e+07 2.88598e+07 2.89273e+07
          2.89816e+07 2.89939e+07 2.95215e+07 3.02528e+07 3.08225e+07 3.05923e+07 2.70691e+07 2.70677e+07 2.71224e+07 2.8227e+07 2.8761e+07 2.88265e+07
          2.91434e+07 2.9372e+07 2.94234e+07 2.95024e+07 2.96538e+07 3.04576e+07 3.10848e+07 3.12651e+07 3.11087e+07 2.77917e+07 2.78141e+07 2.79374e+07
          2.90185e+07 2.92729e+07 2.93287e+07 2.95537e+07 2.97009e+07 2.97508e+07 2.98265e+07 3.01293e+07 3.08889e+07 3.14539e+07 3.17712e+07 3.15965e+07
          2.85303e+07 2.85797e+07 2.88268e+07 2.95448e+07 2.96856e+07 2.97243e+07 2.9839e+07 2.99403e+07 2.99886e+07 3.00527e+07 3.0458e+07 3.13599e+07
          3.19665e+07 3.22747e+07 3.20433e+07 2.91219e+07 2.91814e+07 2.95486e+07 2.9842e+07 2.99704e+07 3.00146e+07 3.01045e+07 3.01804e+07 3.02309e+07
          3.02892e+07 3.07879e+07 3.17404e+07 3.23595e+07 3.26105e+07 3.24887e+07 2.94388e+07 2.95053e+07 2.97267e+07 3.00513e+07 3.0219e+07 3.02666e+07
          3.03459e+07 3.04133e+07 3.04595e+07 3.05155e+07 3.10639e+07 3.21162e+07 3.27499e+07 3.29367e+07 3.31055e+07 2.96919e+07 2.97507e+07 2.99505e+07
          3.02728e+07 3.04373e+07 3.04856e+07 3.05628e+07 3.06269e+07 3.06734e+07 3.0736e+07 3.12792e+07 3.24386e+07 3.31347e+07 3.32806e+07 3.36922e+07
          2.9904e+07 2.99708e+07 3.01297e+07 3.04276e+07 3.06323e+07 3.06855e+07 3.07691e+07 3.08373e+07 3.09003e+07 3.09799e+07 3.17484e+07 3.29884e+07
          3.34918e+07 3.36462e+07 3.41501e+07 3.01069e+07 3.01764e+07 3.03179e+07 3.0609e+07 3.08175e+07 3.08763e+07 3.09739e+07 3.10524e+07 3.11349e+07
          3.1227e+07 3.22647e+07 3.35527e+07 3.3862e+07 3.40507e+07 3.45961e+07 3.02916e+07 3.0355e+07 3.05257e+07 3.08326e+07 3.10029e+07 3.10708e+07
          3.11862e+07 3.12778e+07 3.1385e+07 3.15005e+07 3.27023e+07 3.40185e+07 3.42832e+07 3.4495e+07 3.49163e+07 3.04601e+07 3.05203e+07 3.067e+07
          3.09777e+07 3.11963e+07 3.1266e+07 3.13963e+07 3.15033e+07 3.16348e+07 3.17912e+07 3.31857e+07 3.44236e+07 3.47176e+07 3.4909e+07 3.51994e+07
        </DataArray>
        <DataArray type="Float32" Name="pressure[1]" NumberOfComponents="1" format="ascii">
          2.09336e+07 2.09481e+07 2.14336e+07 2.19433e+07 2.2317e+07 2.2761e+07 2.2905e+07 2.29572e+07 2.30208e+07 2.30912e+07 2.33085e+07 2.36692e+07
          2.3937e+07 2.46014e+07 2.53772e+07 2.09775e+07 2.0992e+07 2.15285e+07 2.20562e+07 2.24703e+07 2.29387e+07 2.3046e+07 2.30866e+07 2.31531e+07
          2.32348e+07 2.35456e+07 2.39143e+07 2.41264e+07 2.48007e+07 2.55449e+07 2.10215e+07 2.1036e+07 2.15974e+07 2.21927e+07 2.25569e+07 2.29961e+07
          2.31273e+07 2.31887e+07 2.32792e+07 2.33972e+07 2.3828e+07 2.42565e+07 2.44532e+07 2.50624e+07 2.57594e+07 2.1066e+07 2.10809e+07 2.1461e+07
          2.23236e+07 2.26738e+07 2.30906e+07 2.32104e+07 2.32663e+07 2.3417e+07 2.36195e+07 2.42045e+07 2.46791e+07 2.48562e+07 2.53687e+07 2.60274e+07
          2.11574e+07 2.11817e+07 1.97752e+07 2.24176e+07 2.28409e+07 2.32862e+07 2.3367e+07 2.34094e+07 2.36857e+07 2.41093e+07 2.46575e+07 2.50813e+07
          2.52536e+07 2.57122e+07 2.62898e+07 2.13533e+07 2.13963e+07 2.18906e+07 2.28374e+07 2.3085e+07 2.3806e+07 2.38817e+07 2.39431e+07 2.42185e+07
          2.46811e+07 2.51786e+07 2.54372e+07 2.56216e+07 2.60594e+07 2.65836e+07 2.16036e+07 2.16533e+07 2.25194e+07 2.33172e+07 2.39224e+07 2.44315e+07
          2.45104e+07 2.4595e+07 2.47635e+07 2.52434e+07 2.56434e+07 2.57462e+07 2.59224e+07 2.6433e+07 2.69925e+07 2.1962e+07 2.20158e+07 2.30904e+07
          2.38883e+07 2.44696e+07 2.50075e+07 2.50691e+07 2.51316e+07 2.52959e+07 2.56787e+07 2.59438e+07 2.60187e+07 2.62566e+07 2.68151e+07 2.75569e+07
          2.24821e+07 2.25452e+07 2.35591e+07 2.43635e+07 2.51954e+07 2.55212e+07 2.56347e+07 2.575e+07 2.58825e+07 2.61225e+07 2.62514e+07 2.62789e+07
          2.65263e+07 2.72426e+07 2.81183e+07 2.31131e+07 2.3217e+07 2.38685e+07 2.45149e+07 2.57321e+07 2.59639e+07 2.62153e+07 2.64536e+07 2.65102e+07
          2.65768e+07 2.6624e+07 2.66505e+07 2.69107e+07 2.76706e+07 2.84509e+07 2.40425e+07 2.41794e+07 2.4462e+07 2.49184e+07 2.61022e+07 2.62839e+07
          2.668e+07 2.70235e+07 2.70549e+07 2.70213e+07 2.70038e+07 2.70388e+07 2.72572e+07 2.80218e+07 2.86976e+07 2.47097e+07 2.47761e+07 2.49425e+07
          2.52952e+07 2.64891e+07 2.6597e+07 2.71451e+07 2.75835e+07 2.7606e+07 2.74459e+07 2.74006e+07 2.74194e+07 2.76352e+07 2.83786e+07 2.94362e+07
          2.51946e+07 2.52658e+07 2.54008e+07 2.5771e+07 2.70123e+07 2.71315e+07 2.77147e+07 2.82176e+07 2.83075e+07 2.81471e+07 2.79149e+07 2.83216e+07
          2.89363e+07 2.99283e+07 3.01603e+07 2.62458e+07 2.62884e+07 2.6168e+07 2.65511e+07 2.78891e+07 2.80055e+07 2.84852e+07 2.88598e+07 2.89273e+07
          2.89816e+07 2.89939e+07 2.95215e+07 3.02528e+07 3.08225e+07 3.05923e+07 2.70691e+07 2.70677e+07 2.71224e+07 2.8227e+07 2.8761e+07 2.88265e+07
          2.91434e+07 2.9372e+07 2.94234e+07 2.95024e+07 2.96538e+07 3.04576e+07 3.10848e+07 3.12651e+07 3.11087e+07 2.77917e+07 2.78141e+07 2.79374e+07
          2.90185e+07 2.92729e+07 2.93287e+07 2.95537e+07 2.97009e+07 2.97508e+07 2.98265e+07 3.01293e+07 3.08889e+07 3.14539e+07 3.17712e+07 3.15965e+07
          2.85303e+07 2.85797e+07 2.88268e+07 2.95448e+07 2.96856e+07 2.97243e+07 2.9839e+07 2.99403e+07 2.99886e+07 3.00527e+07 3.0458e+07 3.13599e+07
          3.19665e+07 3.22747e+07 3.20433e+07 2.91219e+07 2.91814e+07 2.95486e+07 2.9842e+07 2.99704e+07 3.00146e+07 3.01045e+07 3.01804e+07 3.02309e+07
          3.02892e+07 3.07879e+07 3.17404e+07 3.23595e+07 3.26105e+07 3.24887e+07 2.94388e+07 2.95053e+07 2.97267e+07 3.00513e+07 3.0219e+07 3.02666e+07
          3.03459e+07 3.04133e+07 3.04595e+07 3.05155e+07 3.10639e+07 3.21162e+07 3.27499e+07 3.29367e+07 3.31055e+07 2.96919e+07 2.97507e+07 2.99505e+07
          3.02728e+07 3.04373e+07 3.04856e+07 3.05628e+07 3.06269e+07 3.06734e+07 3.0736e+07 3.12792e+07 3.24386e+07 3.31347e+07 3.32806e+07 3.36922e+07
          2.9904e+07 2.99708e+07 3.01297e+07 3.04276e+07 3.06323e+07 3.06855e+07 3.07691e+07 3.08373e+07 3.09003e+07 3.09799e+07 3.17484e+07 3.29884e+07
          3.34918e+07 3.36462e+07 3.41501e+07 3.01069e+07 3.01764e+07 3.03179e+07 3.0609e+07 3.08175e+07 3.08763e+07 3.09739e+07 3.10524e+07 3.11349e+07
          3.1227e+07 3.22647e+07 3.35527e+07 3.3862e+07 3.40507e+07 3.45961e+07 3.02916e+07 3.0355e+07 3.05257e+07 3.08326e+07 3.10029e+07 3.10708e+07
          3.11862e+07 3.12778e+07 3.1385e+07 3.15005e+07 3.27023e+07 3.40185e+07 3.42832e+07 3.4495e+07 3.49163e+07 3.04601e+07 3.05203e+07 3.067e+07
          3.09777e+07 3.11963e+07 3.1266e+07 3.13963e+07 3.15033e+07 3.16348e+07 3.17912e+07 3.31857e+07 3.44236e+07 3.47176e+07 3.4909e+07 3.51994e+07
        </DataArray>
        <DataArray type="Float32" Name="pressure[2]" NumberOfComponents="1" format="ascii">
          2.09336e+07 2.09481e+07 2.14336e+07 2.19433e+07 2.2317e+07 2.2761e+07 2.2905e+07 2.29572e+07 2.30208e+07 2.30912e+07 2.33085e+07 2.36692e+07
          2.3937e+07 2.46014e+07 2.53772e+07 2.09775e+07 2.0992e+07 2.15285e+07 2.20562e+07 2.24703e+07 2.29387e+07 2.3046e+07 2.30866e+07 2.31531e+07
          2.32348e+07 2.35456e+07 2.39143e+07 2.41264e+07 2.48007e+07 2.55449e+07 2.10215e+07 2.1036e+07 2.15974e+07 2.21927e+07 2.25569e+07 2.29961e+07
          2.31273e+07 2.31887e+07 2.32792e+07 2.33972e+07 2.3828e+07 2.42565e+07 2.44532e+07 2.50624e+07 2.57594e+07 2.1066e+07 2.10809e+07 2.1461e+07
          2.23236e+07 2.26738e+07 2.30906e+07 2.32104e+07 2.32663e+07 2.3417e+07 2.36195e+07 2.42045e+07 2.46791e+07 2.48562e+07 2.53687e+07 2.60274e+07
          2.11574e+07 2.11817e+07 1.97752e+07 2.24176e+07 2.28409e+07 2.32862e+07 2.3367e+07 2.34094e+07 2.36857e+07 2.41093e+07 2.46575e+07 2.50813e+07
          2.52536e+07 2.57122e+07 2.62898e+07 2.13533e+07 2.13963e+07 2.18906e+07 2.28374e+07 2.3085e+07 2.3806e+07 2.38817e+07 2.39431e+07 2.42185e+07
          2.46811e+07 2.51786e+07 2.54372e+07 2.56216e+07 2.60594e+07 2.65836e+07 2.16036e+07 2.16533e+07 2.25194e+07 2.33172e+07 2.39224e+07 2.44315e+07
          2.45104e+07 2.4595e+07 2.47635e+07 2.52434e+07 2.56434e+07 2.57462e+07 2.59224e+07 2.6433e+07 2.69925e+07 2.1962e+07 2.20158e+07 2.30904e+07
          2.38883e+07 2.44696e+07 2.50075e+07 2.50691e+07 2.51316e+07 2.52959e+07 2.56787e+07 2.59438e+07 2.60187e+07 2.62566e+07 2.68151e+07 2.75569e+07
          2.24821e+07 2.25452e+07 2.35591e+07 2.43635e+07 2.51954e+07 2.55212e+07 2.56347e+07 2.575e+07 2.58825e+07 2.61225e+07 2.62514e+07 2.62789e+07
          2.65263e+07 2.72426e+07 2.81183e+07 2.31131e+07 2.3217e+07 2.38685e+07 2.45149e+07 2.57321e+07 2.59639e+07 2.62153e+07 2.64536e+07 2.65102e+07
          2.65768e+07 2.6624e+07 2.66505e+07 2.69107e+07 2.76706e+07 2.84509e+07 2.40425e+07 2.41794e+07 2.4462e+07 2.49184e+07 2.61022e+07 2.62839e+07
          2.668e+07 2.70235e+07 2.70549e+07 2.70213e+07 2.70038e+07 2.70388e+07 2.72572e+07 2.80218e+07 2.86976e+07 2.47097e+07 2.47761e+07 2.49425e+07
          2.52952e+07 2.64891e+07 2.6597e+07 2.71451e+07 2.75835e+07 2.7606e+07 2.74459e+07 2.74006e+07 2.74194e+07 2.76352e+07 2.83786e+07 2.94362e+07
          2.51946e+07 2.52658e+07 2.54008e+07 2.5771e+07 2.70123e+07 2.71315e+07 2.77147e+07 2.82176e+07 2.83075e+07 2.81471e+07 2.79149e+07 2.83216e+07
          2.89363e+07 2.99283e+07 3.01603e+07 2.62458e+07 2.62884e+07 2.6168e+07 2.65511e+07 2.78891e+07 2.80055e+07 2.84852e+07 2.88598e+07 2.89273e+07
          2.89816e+07 2.89939e+07 2.95215e+07 3.02528e+07 3.08225e+07 3.05923e+07 2.70691e+07 2.70677e+07 2.71224e+07 2.8227e+07 2.8761e+07 2.88265e+07
          2.91434e+07 2.9372e+07 2.94234e+07 2.95024e+07 2.96538e+07 3.04576e+07 3.10848e+07 3.12651e+07 3.11087e+07 2.77917e+07 2.78141e+07 2.79374e+07
          2.90185e+07 2.92729e+07 2.93287e+07 2.95537e+07 2.97009e+07 2.97508e+07 2.98265e+07 3.01293e+07 3.08889e+07 3.14539e+07 3.17712e+07 3.15965e+07
          2.85303e+07 2.85797e+07 2.88268e+07 2.95448e+07 2.96856e+07 2.97243e+07 2.9839e+07 2.99403e+07 2.99886e+07 3.00527e+07 3.0458e+07 3.13599e+07
          3.19665e+07 3.22747e+07 3.20433e+07 2.91219e+07 2.91814e+07 2.95486e+07 2.9842e+07 2.99704e+07 3.00146e+07 3.01045e+07 3.01804e+07 3.02309e+07
          3.02892e+07 3.07879e+07 3.17404e+07 3.23595e+07 3.26105e+07 3.24887e+07 2.94388e+07 2.95053e+07 2.97267e+07 3.00513e+07 3.0219e+07 3.02666e+07
          3.03459e+07 3.04133e+07 3.04595e+07 3.05155e+07 3.10639e+07 3.21162e+07 3.27499e+07 3.29367e+07 3.31055e+07 2.96919e+07 2.97507e+07 2.99505e+07
          3.02728e+07 3.04373e+07 3.04856e+07 3.05628e+07 3.06269e+07 3.06734e+07 3.0736e+07 3.12792e+07 3.24386e+07 3.31347e+07 3.32806e+07 3.36922e+07
          2.9904e+07 2.99708e+07 3.01297e+07 3.04276e+07 3.06323e+07 3.06855e+07 3.07691e+07 3.08373e+07 3.09003e+07 3.09799e+07 3.17484e+07 3.29884e+07
          3.34918e+07 3.36462e+07 3.41501e+07 3.01069e+07 3.01764e+07 3.03179e+07 3.0609e+07 3.08175e+07 3.08763e+07 3.09739e+07 3.10524e+07 3.11349e+07
          3.1227e+07 3.22647e+07 3.35527e+07 3.3862e+07 3.40507e+07 3.45961e+07 3.02916e+07 3.0355e+07 3.05257e+07 3.08326e+07 3.10029e+07 3.10708e+07
          3.11862e+07 3.12778e+07 3.1385e+07 3.15005e+07 3.27023e+07 3.40185e+07 3.42832e+07 3.4495e+07 3.49163e+07 3.04601e+07 3.05203e+07 3.067e+07
          3.09777e+07 3.11963e+07 3.1266e+07 3.13963e+07 3.15033e+07 3.16348e+07 3.17912e+07 3.31857e+07 3.44236e+07 3.47176e+07 3.4909e+07 3.51994e+07
        </DataArray>
        <DataArray type="Float32" Name="velocity[0]" NumberOfComponents="1" format="ascii">
          5.33098e-11 2.91986e-08 2.81847e-10 2.57867e-09 -1.39467e-10 -1.23624e-09 -5.08431e-11 1.53708e-09 2.26071e-09 -4.82451e-10 -2.07057e-09 -3.05582e-09
          -2.17345e-09 -6.39518e-10 -2.79392e-09 -1.11615e-09 8.45231e-08 6.08934e-10 8.84874e-10 3.29606e-10 2.18786e-09 9.20369e-09 6.62521e-09 5.02301e-09
          -2.64948e-09 -4.33521e-09 -1.28885e-08 -7.99687e-09 -2.03936e-09 -7.40397e-09 -9.22903e-09 1.2815e-07 1.22677e-09 2.80213e-08 8.41714e-10 6.20024e-09
          1.6966e-08 1.34627e-08 3.04646e-09 -6.6761e-09 -5.33822e-09 -3.23485e-08 -1.12155e-08 -4.25366e-09 -1.10434e-08 -2.30018e-08 1.60345e-07 6.34059e-09
          1.07278e-07 -4.5857e-10 -3.56219e-09 4.00473e-09 7.91115e-09 -4.05156e-09 -1.48543e-08 -7.18248e-09 -5.72516e-08 -7.97772e-09 -6.01646e-09 -1.4944e-08
          -9.52824e-08 -2.63279e-08 -1.63917e-10 -5.78074e-08 -5.52258e-09 -3.46213e-08 -4.3106e-08 -4.37802e-08 -1.08946e-08 -1.61507e-08 -1.02427e-08 -9.74363e-08
          -4.06203e-09 -5.46772e-09 -1.82795e-08 -1.69519e-07 -2.06916e-07 -6.85031e-09 -1.97074e-07 -1.60769e-08 -1.07045e-07 -7.33376e-08 -1.10097e-07 -1.20984e-08
          -8.33546e-09 -1.5034e-08 -1.3973e-07 -2.41941e-09 -4.34666e-09 -2.04514e-08 -1.70983e-07 -1.80719e-07 -2.54584e-09 -8.47544e-08 -1.91681e-08 -1.8093e-07
          -5.93476e-08 -1.73193e-07 -9.86414e-09 -3.90011e-09 -1.80492e-08 -1.64924e-07 -2.014e-09 -4.20349e-09 -2.19141e-08 -1.55743e-07 -1.67039e-07 -2.77633e-09
          -2.91008e-08 -1.46715e-08 -2.16831e-07 -3.489e-08 -2.49148e-07 -7.52415e-09 -2.77984e-09 -1.9668e-08 -1.78309e-07 -1.62004e-09 -4.22631e-09 -2.35677e-08
          -1.39557e-07 -1.50931e-07 -2.60084e-09 -6.1201e-09 -1.19241e-08 -2.33836e-07 -1.27556e-08 -3.15479e-07 -5.69926e-09 -2.97887e-09 -3.19012e-08 -1.6751e-07
          -1.53256e-09 -3.74259e-09 -2.57752e-08 -1.11234e-07 -1.3697e-07 -8.71787e-09 -1.27426e-09 -8.49374e-09 -2.33964e-07 -4.1912e-09 -3.80626e-07 -5.19027e-09
          -3.52033e-09 -5.35426e-08 -1.37244e-07 -2.34007e-09 -3.08865e-09 -2.79856e-08 -7.94607e-08 -1.23638e-07 -1.78738e-08 -1.78261e-09 -7.15416e-09 -2.30613e-07
          -1.39511e-09 -4.39469e-07 -7.15794e-09 -4.85072e-09 -6.8594e-08 -1.04006e-07 -5.23821e-09 -3.35639e-09 -2.99676e-08 -6.01702e-08 -1.08646e-07 -2.5593e-08
          -1.37796e-09 -9.16394e-09 -2.32054e-07 -1.15028e-09 -4.8483e-07 -1.71771e-08 -5.30349e-09 -7.48582e-08 -5.62901e-08 -1.36472e-08 -7.0971e-09 -3.14426e-08
          -4.57172e-08 -9.20541e-08 -3.37594e-08 -3.67541e-09 -1.34896e-08 -2.19084e-07 -1.673e-09 -5.10367e-07 -4.68925e-08 -7.28235e-09 -5.52709e-08 -1.77643e-08
          -2.8284e-08 -1.44238e-08 -3.20673e-08 -3.94191e-08 -8.58715e-08 -2.90878e-08 -5.36288e-09 -1.9795e-08 -2.04339e-07 -1.73892e-09 -4.92307e-07 -8.3178e-08
          -1.46515e-08 -2.4929e-08 -7.29465e-09 -3.42476e-08 -2.62219e-08 -3.07277e-08 -4.69207e-08 -7.93239e-08 -1.69409e-08 -3.95578e-09 -2.65518e-08 -2.03656e-07
          -1.24695e-09 -4.51346e-07 -1.01171e-07 -2.33636e-08 -1.47048e-08 -3.81004e-09 -3.13299e-08 -4.09317e-08 -2.73823e-08 -5.74945e-08 -6.17593e-08 -9.87954e-09
          -3.4405e-09 -3.2601e-08 -2.01871e-07 -1.56336e-09 -3.85008e-07 -1.05981e-07 -3.22561e-08 -8.64801e-09 -5.0294e-09 -3.51282e-08 -6.01593e-08 -2.29916e-08
          -6.1371e-08 -4.73975e-08 -5.62162e-09 -4.70123e-09 -4.66716e-08 -1.77541e-07 -3.01759e-09 -3.04655e-07 -1.06715e-07 -4.9965e-08 -3.55449e-09 -4.92093e-09
          -2.86999e-08 -8.92499e-08 -1.82291e-08 -6.02026e-08 -3.72755e-08 -2.29808e-09 -3.3762e-09 -6.96924e-08 -1.28748e-07 -4.61967e-09 -2.31759e-07 -1.14767e-07
          -7.53457e-08 -2.51301e-09 -3.31925e-09 -1.86209e-08 -1.16638e-07 -1.42121e-08 -5.42584e-08 -2.67218e-08 -1.29929e-09 -1.28488e-09 -8.67182e-08 -8.23254e-08
          -4.87502e-09 -1.64823e-07 -1.14355e-07 -1.17939e-07 -1.46077e-09 -2.73292e-09 -2.43492e-08 -1.33328e-07 -1.24374e-08 -4.50198e-08 -1.80194e-08 -1.41587e-09
          -5.99935e-10 -9.28431e-08 -4.70686e-08 -4.08218e-09 -1.20495e-07 -7.38214e-08 -2.03849e-07 -2.54765e-09 -3.88745e-09 -3.61964e-08 -1.4142e-07 -1.33869e-08
          -3.44149e-08 -1.21433e-08 -1.29787e-09 -1.52459e-10 -8.66626e-08 -2.47328e-08 -3.51088e-09 -9.47251e-08 -3.08404e-08 -2.82443e-07 -3.99481e-09 -7.16235e-09
          -4.40237e-08 -1.4782e-07 -1.53855e-08 -2.16499e-08 -6.19547e-09 -2.05965e-09 -7.93423e-10 -6.42266e-08 -1.68787e-08 -3.4342e-09 -8.92356e-08 -1.6712e-08
          -2.9837e-07 -3.6431e-09 -1.37536e-08 -4.81932e-08 -1.54322e-07 -1.9097e-08 -1.01077e-08 -2.4779e-09 -9.2885e-10 -5.24939e-10 -3.21223e-08 -1.26194e-08
          -2.81794e-09 -9.40159e-08 -1.34561e-08 -2.56943e-07 -5.05358e-09 -2.37096e-08 -6.32247e-08 -1.60809e-07 -2.4939e-08 -2.67833e-09 -5.58374e-10 2.05131e-10
          7.64169e-11 -7.58947e-09 -4.81919e-09 -1.03139e-09 -4.78848e-08 -6.26532e-09 -1.11061e-07 -3.33396e-09 -1.43835e-08 -3.77595e-08 -8.26538e-08 -1.40038e-08
        </DataArray>
        <DataArray type="Float32" Name="velocity[1]" NumberOfComponents="1" format="ascii">
          -8.28497e-27 4.67951e-24 8.26941e-26 4.00756e-25 2.16748e-26 0 7.90162e-27 -2.22863e-25 1.22784e-26 5.8715e-24 -3.7602e-24 1.67568e-26
          2.42864e-24 -9.53981e-25 4.34365e-25 1.90033e-25 3.92847e-24 7.85065e-26 -6.63992e-25 -1.43196e-25 7.45637e-24 1.40411e-24 4.91405e-25 -7.13027e-24
          -8.39823e-26 0 -1.46251e-26 1.87731e-26 -1.22538e-26 2.82249e-25 1.0708e-24 -6.22336e-24 -1.37004e-24 4.88131e-24 -1.27882e-25 0
          2.25716e-25 -5.32261e-25 -3.85132e-25 0 7.33767e-24 -1.17725e-23 0 1.13289e-24 -2.83088e-25 2.18899e-24 1.06e-23 -1.34712e-24
          -1.01879e-23 2.83509e-25 9.57858e-24 -2.30948e-23 2.62429e-23 -4.22843e-24 1.1199e-24 3.81264e-24 -4.77408e-24 2.99573e-24 -1.29077e-24 9.68375e-25
          -1.21931e-25 -6.25896e-23 5.38871e-24 1.082e-23 -3.20818e-25 -3.46292e-24 2.47726e-26 -1.18897e-25 -3.97835e-25 -7.14628e-24 4.63492e-24 -8.69871e-24
          4.05525e-28 1.33389e-25 -1.51819e-24 -1.53163e-25 6.45859e-24 -5.05898e-25 3.47383e-24 1.04647e-25 -7.83279e-24 0 -6.14913e-26 2.35773e-25
          5.49933e-25 -4.35354e-25 6.93771e-24 -1.2965e-24 7.69057e-25 1.51843e-24 -9.60826e-25 1.08741e-24 0 6.38004e-24 -5.57655e-25 -1.08284e-23
          8.37881e-26 -5.98636e-27 -2.41683e-24 6.211e-28 6.92528e-28 2.71495e-28 1.95744e-26 1.81158e-28 -1.66019e-24 -2.11441e-25 1.22742e-23 1.17566e-24
          4.93706e-24 2.91318e-25 1.37997e-23 9.8276e-26 9.27079e-26 3.49446e-25 -5.19996e-27 -2.99492e-24 -1.32311e-23 2.76969e-28 -3.27716e-25 1.91718e-24
          -1.50458e-24 -8.74901e-24 -9.1399e-26 -1.27076e-24 -2.93028e-25 2.75072e-24 0 0 1.84781e-26 -6.11876e-28 4.8844e-25 4.13986e-24
          5.03737e-28 6.03394e-26 1.15399e-28 -1.01977e-23 1.30393e-24 1.40723e-24 1.44074e-25 -2.06686e-24 3.04289e-24 -5.69815e-24 5.45993e-24 7.62189e-26
          -5.88752e-26 -3.59397e-26 3.53737e-24 -7.55431e-25 0 -2.08859e-24 3.84542e-24 4.40476e-25 4.17712e-25 -1.84592e-25 1.97569e-24 -1.85532e-27
          -3.67672e-24 7.37235e-24 2.74838e-25 1.47008e-25 -3.87133e-25 7.92589e-24 1.67198e-24 -2.71971e-25 1.35985e-25 -4.09132e-24 4.44102e-24 -8.73944e-25
          -1.06171e-25 -1.29187e-24 -1.80642e-23 2.99994e-26 3.36836e-24 -3.66725e-24 7.71723e-26 1.5536e-24 2.91731e-24 -1.71137e-24 9.86842e-25 -9.31449e-26
          2.997e-24 7.8657e-24 0 -3.22677e-25 3.97042e-25 2.08192e-24 5.20888e-26 6.0716e-25 -3.33716e-24 6.37918e-28 -2.618e-24 -8.28646e-25
          1.35983e-24 -8.00468e-25 -1.89481e-28 9.88361e-26 8.8498e-27 8.90775e-25 1.24461e-25 6.69577e-28 1.49494e-23 -4.01928e-26 -3.409e-24 5.51308e-24
          -3.01415e-25 2.61811e-24 2.17904e-24 -4.36786e-24 4.52986e-29 -2.28171e-24 -3.10964e-24 -5.44666e-24 -2.21566e-27 3.86514e-25 4.66867e-25 3.43311e-28
          -3.54679e-26 -7.30384e-24 1.93299e-24 0 0 3.05029e-25 3.616e-24 -4.76678e-25 4.25568e-24 0 1.30258e-24 0
          -3.06434e-25 4.74036e-25 1.85455e-28 8.46429e-26 -7.35397e-24 1.78347e-28 7.6967e-29 -2.00093e-29 3.86597e-24 -3.49407e-28 -1.14705e-24 -1.97366e-24
          5.52312e-28 9.28973e-25 7.5658e-28 -1.18456e-25 1.71381e-24 -9.37939e-24 0 -9.74862e-24 0 1.70502e-28 2.84488e-24 -3.52584e-24
          -1.60946e-24 2.51736e-28 1.23366e-24 0 3.21837e-24 0 4.24476e-25 1.61932e-24 4.46337e-24 1.07026e-25 -6.19481e-24 -5.2712e-24
          -1.98102e-24 1.69101e-25 4.91845e-26 -3.17901e-30 -1.6297e-24 -9.75072e-25 3.85817e-24 -1.95351e-24 2.13083e-24 -1.74287e-24 7.82058e-25 7.9122e-24
          -6.73405e-26 -4.20748e-24 9.61265e-24 5.06382e-24 -3.04508e-24 6.6575e-26 8.47308e-25 -4.11191e-28 9.57843e-25 1.29069e-28 -3.49762e-24 7.58163e-25
          -1.59558e-24 3.39949e-25 -2.45034e-24 -1.11176e-25 -5.36286e-24 -4.84794e-24 8.71481e-24 2.48032e-25 3.26085e-24 9.93766e-25 -3.30014e-25 -7.93043e-25
          -9.28398e-25 5.58153e-25 0 -3.54608e-26 -1.13063e-24 4.04278e-24 -7.10776e-24 7.10906e-24 -5.22751e-24 1.1809e-27 0 0
          2.22773e-25 -6.33482e-28 1.26844e-24 -1.05542e-24 -1.10977e-24 1.02348e-24 -1.71904e-24 -8.04226e-25 -1.21175e-24 2.03733e-26 4.70428e-25 -3.41137e-24
          1.23452e-23 -2.36027e-25 -5.93913e-24 4.24903e-25 8.62933e-25 -8.3524e-29 -7.38102e-25 -2.89583e-28 -3.50339e-28 1.0424e-25 -2.63363e-24 4.63789e-25
          -1.17361e-25 9.31641e-24 -3.87572e-24 0 -2.50888e-25 -7.85628e-25 6.04548e-24 -6.99985e-25 0 -4.1654e-25 -3.03132e-28 -3.39523e-25
          5.75982e-25 -1.17902e-24 -1.96681e-24 -3.21775e-25 -2.52846e-24 9.73704e-25 -2.69509e-23 0 2.69552e-23 -1.97696e-23 1.63334e-23 4.1044e-25
        </DataArray>
        <DataArray type="Float32" Name="velocity[2]" NumberOfComponents="1" format="ascii">
          2.17425e-11 3.75903e-09 -2.7326e-09 -2.40644e-09 -2.95603e-09 -3.05224e-09 -2.77158e-09 -2.52512e-09 -2.56666e-09 -3.15318e-09 -3.26164e-09 -3.10207e-09
          -2.60027e-09 -2.07405e-09 -1.42363e-09 -1.00003e-10 1.3834e-08 -2.18693e-09 -1.86319e-09 -1.74166e-09 -1.64147e-09 -8.61801e-10 -1.65431e-09 -2.05516e-09
          -3.35611e-09 -3.55203e-09 -4.62486e-09 -3.09867e-09 -1.6832e-09 -1.91057e-09 -1.15003e-09 2.26925e-08 -5.65939e-10 2.5962e-09 -3.71119e-09 -2.6994e-09
          -7.20222e-10 -1.37836e-09 -3.14626e-09 -4.59816e-09 -4.18937e-09 -8.11886e-09 -3.64932e-09 -2.20689e-09 -2.55478e-09 -3.57506e-09 2.85062e-08 2.7467e-10
          1.53471e-08 -5.91667e-09 -5.93718e-09 -3.86652e-09 -2.63151e-09 -4.21768e-09 -5.58865e-09 -3.91242e-09 -1.19366e-08 -2.70627e-09 -2.49658e-09 -3.32675e-09
          -1.23893e-08 8.60901e-10 -8.51519e-10 -1.75021e-08 -1.15027e-08 -1.53409e-08 -1.4849e-08 -1.28487e-08 -5.74319e-09 -6.69135e-09 -5.69262e-09 -1.92656e-08
          -1.19424e-09 -1.65928e-09 -3.64238e-09 -2.92369e-08 -3.61606e-08 -2.19731e-09 -3.96836e-08 -1.0988e-08 -2.4282e-08 -1.6136e-08 -2.21334e-08 -4.29286e-09
          -3.84696e-09 -4.99393e-09 -2.59471e-08 -9.11346e-10 -1.33099e-09 -3.91057e-09 -3.05621e-08 -3.2883e-08 -1.59761e-09 -1.79068e-08 -8.40573e-09 -3.60451e-08
          -1.37718e-08 -3.30304e-08 -3.28799e-09 -2.39831e-09 -4.92403e-09 -3.01557e-08 -7.6896e-10 -1.12678e-09 -4.04704e-09 -2.78962e-08 -3.06427e-08 -1.89979e-09
          -7.18103e-09 -5.52262e-09 -4.07756e-08 -8.5928e-09 -4.58625e-08 -2.37094e-09 -1.60048e-09 -4.49052e-09 -3.22265e-08 -9.53993e-10 -1.46491e-09 -4.52381e-09
          -2.50681e-08 -2.78356e-08 -1.93218e-09 -2.72616e-09 -4.07446e-09 -4.30828e-08 -4.05816e-09 -5.67912e-08 -1.4158e-09 -9.72604e-10 -5.3775e-09 -2.93964e-08
          -9.04799e-10 -1.33011e-09 -4.91158e-09 -2.08552e-08 -2.68262e-08 -3.75492e-09 -1.63443e-09 -2.832e-09 -4.28794e-08 -2.63118e-09 -6.81356e-08 -9.85892e-10
          -6.65198e-10 -8.78805e-09 -2.38816e-08 -1.08552e-09 -1.23753e-09 -5.30364e-09 -1.4737e-08 -2.34715e-08 -4.73238e-09 -1.61689e-09 -2.58248e-09 -4.19262e-08
          -1.47192e-09 -7.80984e-08 -1.12869e-09 -5.77652e-10 -1.15093e-08 -1.84604e-08 -1.85341e-09 -1.26424e-09 -5.57596e-09 -1.09121e-08 -2.04766e-08 -6.08418e-09
          -1.33547e-09 -2.59695e-09 -4.17863e-08 -1.04631e-09 -8.57522e-08 -2.21731e-09 3.50744e-10 -1.18077e-08 -1.02929e-08 -4.2667e-09 -2.18518e-09 -5.74416e-09
          -8.51659e-09 -1.75746e-08 -7.44362e-09 -1.74746e-09 -3.23441e-09 -3.99756e-08 -2.25432e-09 -9.18413e-08 -8.72277e-09 -3.51136e-10 -1.00809e-08 -5.25981e-09
          -6.95706e-09 -3.24249e-09 -5.65907e-09 -6.90438e-09 -1.49141e-08 -5.44084e-09 -1.94874e-09 -4.31138e-09 -3.67099e-08 -1.06197e-09 -8.81412e-08 -1.5708e-08
          -2.54231e-09 -4.71373e-09 -2.36217e-09 -7.50209e-09 -4.99366e-09 -4.96347e-09 -7.81474e-09 -1.35275e-08 -3.36021e-09 -1.49642e-09 -5.3718e-09 -3.64093e-08
          -6.92265e-10 -8.05729e-08 -1.91416e-08 -5.0782e-09 -3.49139e-09 -1.66987e-09 -6.53812e-09 -7.06754e-09 -4.16768e-09 -9.89036e-09 -1.08131e-08 -2.31904e-09
          -1.39408e-09 -6.3488e-09 -3.61494e-08 -9.28973e-10 -6.97904e-08 -2.17527e-08 -8.45197e-09 -4.37716e-09 -3.95006e-09 -8.91353e-09 -1.10325e-08 -3.25069e-09
          -1.08103e-08 -8.63373e-09 -1.69972e-09 -1.63336e-09 -8.40857e-09 -3.19178e-08 -2.13989e-09 -5.61853e-08 -2.22166e-08 -1.17619e-08 -3.10735e-09 -3.46627e-09
          -8.43616e-09 -1.69859e-08 -2.42969e-09 -1.07048e-08 -6.95818e-09 -1.15266e-09 -1.60219e-09 -1.27562e-08 -2.37827e-08 -3.14132e-09 -4.4223e-08 -2.4128e-08
          -1.61305e-08 -2.81215e-09 -2.99827e-09 -5.68755e-09 -2.12051e-08 -1.95117e-09 -9.87296e-09 -5.64609e-09 -1.41748e-09 -1.34729e-09 -1.61443e-08 -1.60115e-08
          -3.27621e-09 -3.22142e-08 -2.45982e-08 -2.45974e-08 -2.89637e-09 -3.17845e-09 -6.65224e-09 -2.44705e-08 -2.15597e-09 -8.24579e-09 -3.90871e-09 -1.15364e-09
          -1.10229e-09 -1.73437e-08 -9.94945e-09 -3.11472e-09 -2.41119e-08 -1.82131e-08 -4.07697e-08 -2.92977e-09 -2.96997e-09 -8.14578e-09 -2.59589e-08 -2.71393e-09
          -6.46683e-09 -3.1176e-09 -1.33705e-09 -1.07589e-09 -1.67072e-08 -6.4821e-09 -3.05285e-09 -1.93699e-08 -9.04017e-09 -5.32126e-08 -3.22063e-09 -3.68685e-09
          -9.98958e-09 -2.74439e-08 -3.02567e-09 -4.27045e-09 -2.11606e-09 -1.48682e-09 -1.22539e-09 -1.31992e-08 -5.71867e-09 -3.40416e-09 -1.84495e-08 -5.7205e-09
          -5.57899e-08 -4.09628e-09 -5.59784e-09 -1.11941e-08 -2.93933e-08 -4.29197e-09 -2.09919e-09 -1.1388e-09 -1.05005e-09 -1.12915e-09 -7.63867e-09 -5.24272e-09
          -3.6739e-09 -1.97286e-08 -5.53225e-09 -4.9915e-08 -6.78796e-09 -9.67144e-09 -1.55158e-08 -3.11526e-08 -5.4206e-09 -6.50961e-10 -4.83841e-10 -3.59656e-10
          -3.6114e-10 -2.11418e-09 -2.25569e-09 -1.84044e-09 -1.14068e-08 -5.72116e-09 -2.90167e-08 -1.24277e-08 -1.08854e-08 -1.24146e-08 -1.73252e-08 -2.90951e-09
        </DataArray>
        <DataArray type="Float32" Name="z[0]" NumberOfComponents="1" format="ascii">
          0.150578 0.150579 0.15058 0.150582 0.150582 0.150583 0.150584 0.150585 0.150585 0.150586 0.150587 0.150588
          0.150589 0.150591 0.150596 0.150581 0.150582 0.150583 0.150585 0.150586 0.150587 0.150587 0.150588 0.150588
          0.150589 0.15059 0.150591 0.150593 0.150595 0.150599 0.150584 0.150585 0.150587 0.150588 0.150589 0.15059
          0.15059 0.150591 0.150592 0.150593 0.150593 0.150595 0.150596 0.150598 0.150602 0.150588 0.150589 0.15059
          0.150591 0.150592 0.150593 0.150594 0.150594 0.150595 0.150596 0.150597 0.150598 0.150599 0.150601 0.150605
          0.150591 0.150592 0.150593 0.150594 0.150596 0.184487 0.193554 0.285325 0.150598 0.150599 0.1506 0.150601
          0.150602 0.150604 0.150609 0.150594 0.150595 0.150596 0.150603 0.278298 0.40666 0.396701 0.393808 0.150601
          0.150602 0.150603 0.150604 0.150605 0.150607 0.150612 0.150597 0.150598 0.150599 0.179314 0.400641 0.433454