-- Eclipse grid exported from SBED, a product from Geomodeling Technology Corp
-- More information about SBED is available at http://www.geomodeling.com/
-- SBED project name: Test3 
-- Model name: 2D-Invariable-Transverse 
-- Realization name: Bedding Realization 1 
-- Scaling factors used during export(x,y,z): 0.010000 0.010000 0.010000
-- SBED version: SBED 4.3 
-- Export date: 5/10/2015 
-- Export time: 12:35:50 
-- Length Unit : m
-- PERMX Unit : mD
-- PORO Unit : Fraction
 
MAPAXES
0.0000 0.0000
0.0000 40.0000
40.0000 40.0000 /

SPECGRID
2 2 4 1 F /

COORD
0.0000 0.0000 0.0000 0.0000 0.0000 -40.0000 
20.0000 0.0000 0.0000 20.0000 0.0000 -40.0000 
40.0000 0.0000 0.0000 40.0000 0.0000 -40.0000 
0.0000 20.0000 0.0000 0.0000 20.0000 -40.0000 
20.0000 20.0000 0.0000 20.0000 20.0000 -40.0000 
40.0000 20.0000 0.0000 40.0000 20.0000 -40.0000 
0.0000 40.0000 0.0000 0.0000 40.0000 -40.0000 
20.0000 40.0000 0.0000 20.0000 40.0000 -40.0000 
40.0000 40.0000 0.0000 40.0000 40.0000 -40.0000 
/

ZCORN
 0.0000 0.0000 0.0000 0.0000 0.0000 0.0000 0.0000 0.0000
 0.0000 0.0000 0.0000 0.0000 0.0000 0.0000 0.0000 0.0000
 -10.0000 -10.0000 -10.0000 -10.0000 -10.0000 -10.0000 -10.0000 -10.0000
 -10.0000 -10.0000 -10.0000 -10.0000 -10.0000 -10.0000 -10.0000 -10.0000
 -10.0000 -10.0000 -10.0000 -10.0000 -10.0000 -10.0000 -10.0000 -10.0000
 -10.0000 -10.0000 -10.0000 -10.0000 -10.0000 -10.0000 -10.0000 -10.0000
 -20.0000 -20.0000 -20.0000 -20.0000 -20.0000 -20.0000 -20.0000 -20.0000
 -20.0000 -20.0000 -20.0000 -20.0000 -20.0000 -20.0000 -20.0000 -20.0000
 -20.0000 -20.0000 -20.0000 -20.0000 -20.0000 -20.0000 -20.0000 -20.0000
 -20.0000 -20.0000 -20.0000 -20.0000 -20.0000 -20.0000 -20.0000 -20.0000
 -30.0000 -30.0000 -30.0000 -30.0000 -30.0000 -30.0000 -30.0000 -30.0000
 -30.0000 -30.0000 -30.0000 -30.0000 -30.0000 -30.0000 -30.0000 -30.0000
 -30.0000 -30.0000 -30.0000 -30.0000 -30.0000 -30.0000 -30.0000 -30.0000
 -30.0000 -30.0000 -30.0000 -30.0000 -30.0000 -30.0000 -30.0000 -30.0000
 -40.0000 -40.0000 -40.0000 -40.0000 -40.0000 -40.0000 -40.0000 -40.0000
 -40.0000 -40.0000 -40.0000 -40.0000 -40.0000 -40.0000 -40.0000 -40.0000
/

ACTNUM
 1 1 1 1 1 1 1 1 1 1 1 1 1 1 1 1
/

PERMX
 149.962 149.362 151.649 145.088 247.249 246.260 250.031 239.212
 148.591 143.791 146.063 152.774 244.988 237.074 240.820 251.885
/

PORO
 0.198 0.214 0.204 0.224 0.247 0.268 0.255 0.279
 0.208 0.212 0.185 0.155 0.260 0.265 0.231 0.194
/

-- 1 = CBED Sand1--
-- 2 = CBED Sand2--
SATNUM
 1 1 1 1 2 2 2 2
 1 1 1 1 2 2 2 2
/
