--
-- Regular 3x3x3 cornerpoint grid for testing purposes
-- Porosity is entirely random.
-- Permx is exponentially correlated to porosity
-- Copyright 2010 Statoil ASA
-- CC-BY-SA 3.0


SPECGRID
3 3 3 1 F /

COORD
0 0 0 0 0 1
0.333333 0 0 0.333333 0 1
0.666667 0 0 0.666667 0 1
1 0 0 1 0 1
0 0.333333 0 0 0.333333 1
0.333333 0.333333 0 0.333333 0.333333 1
0.666667 0.333333 0 0.666667 0.333333 1
1 0.333333 0 1 0.333333 1
0 0.666667 0 0 0.666667 1
0.333333 0.666667 0 0.333333 0.666667 1
0.666667 0.666667 0 0.666667 0.666667 1
1 0.666667 0 1 0.666667 1
0 1 0 0 1 1
0.333333 1 0 0.333333 1 1
0.666667 1 0 0.666667 1 1
1 1 0 1 1 1
/

ZCORN
 0 0 0 0 0 0
 0 0 0 0 0 0 0 0 0 0 0 0
 0 0 0 0 0 0 0 0 0 0 0 0
 0 0 0 0 0 0 0.333333 0.333333 0.333333 0.333333 0.333333 0.333333
 0.333333 0.333333 0.333333 0.333333 0.333333 0.333333 0.333333 0.333333 0.333333 0.333333 0.333333 0.333333
 0.333333 0.333333 0.333333 0.333333 0.333333 0.333333 0.333333 0.333333 0.333333 0.333333 0.333333 0.333333
 0.333333 0.333333 0.333333 0.333333 0.333333 0.333333 0.333333 0.333333 0.333333 0.333333 0.333333 0.333333
 0.333333 0.333333 0.333333 0.333333 0.333333 0.333333 0.333333 0.333333 0.333333 0.333333 0.333333 0.333333
 0.333333 0.333333 0.333333 0.333333 0.333333 0.333333 0.333333 0.333333 0.333333 0.333333 0.333333 0.333333
 0.333333 0.333333 0.333333 0.333333 0.333333 0.333333 0.666667 0.666667 0.666667 0.666667 0.666667 0.666667
 0.666667 0.666667 0.666667 0.666667 0.666667 0.666667 0.666667 0.666667 0.666667 0.666667 0.666667 0.666667
 0.666667 0.666667 0.666667 0.666667 0.666667 0.666667 0.666667 0.666667 0.666667 0.666667 0.666667 0.666667
 0.666667 0.666667 0.666667 0.666667 0.666667 0.666667 0.666667 0.666667 0.666667 0.666667 0.666667 0.666667
 0.666667 0.666667 0.666667 0.666667 0.666667 0.666667 0.666667 0.666667 0.666667 0.666667 0.666667 0.666667
 0.666667 0.666667 0.666667 0.666667 0.666667 0.666667 0.666667 0.666667 0.666667 0.666667 0.666667 0.666667
 0.666667 0.666667 0.666667 0.666667 0.666667 0.666667 1 1 1 1 1 1
 1 1 1 1 1 1 1 1 1 1 1 1
 1 1 1 1 1 1 1 1 1 1 1 1
 1 1 1 1 1 1
/

ACTNUM
1   1   1   1   1   1   1   1   1   1   1   1   1   1   1   1   1   1   1   1   1   1   1   1   1   1   1
/

PORO
 0.257815 0.190238 0.129186
 0.0161844 0.324159 0.212772
 0.135038 0.0159073 0.32653
 0.137728 0.310078 0.0267721
 0.117152 0.0197441 0.222426
 0.14356 0.321484 0.0268927
 0.150828 0.0246572 0.148487
 0.240549 0.0696985 0.0171716
 0.25113 0.0244694 0.0272895
/

PERMX
 5.29064e+06 22820.4 166.537
 0.0184694 1.11066e+09 140288
 266.893 0.0180616 1.34452e+09
 331.49 3.57055e+08 0.0433534
 63.1409 0.0246061 305422
 530.388 8.9521e+08 0.0437768
 952.768 0.0365596 788.934
 1.31592e+06 1.37863 0.0199988
 3.08721e+06 0.0360105 0.0451994
/

PERMY
 5.29064e+06 22820.4 166.537
 0.0184694 1.11066e+09 140288
 266.893 0.0180616 1.34452e+09
 331.49 3.57055e+08 0.0433534
 63.1409 0.0246061 305422
 530.388 8.9521e+08 0.0437768
 952.768 0.0365596 788.934
 1.31592e+06 1.37863 0.0199988
 3.08721e+06 0.0360105 0.0451994
/
PERMZ
 64.0367 8.55438 1.38791
 0.0479136 462.098 16.7384
 1.65223 0.0475198 495.915
 1.79005 303.783 0.0656798
 0.969781 0.0532734 22.3153
 2.12968 426.693 0.0659162
 2.64452 0.0616696 2.46636
 38.2887 0.235924 0.0493435
 52.4756 0.0613257 0.0667
/

