-- Eclipse grid exported from SBED, a product from Geomodeling Technology Corp
-- More information about SBED is available at http://www.geomodeling.com/
-- SBED project name: benchmarking 
-- Model name: Undirectional-One Slack Water Period-High Mud Content 
-- Realization name: Bedding Realization 1 
-- Scaling factors used during export(x,y,z): 0.010000 0.010000 0.010000
-- SBED version: SBED 4.2 
-- Export date: 22/4/2013 
-- Export time: 13:11:26 
-- Length Unit : m
-- PERMX Unit : mD
-- PORO Unit : Fraction
 
MAPAXES
0.0000 0.0000
0.0000 0.1000
0.1000 0.1000 /

SPECGRID
10 10 16 1 F /

COORD
0.0000 0.0000 -0.0201 0.0000 0.0000 0.0000 
0.0100 0.0000 -0.0201 0.0100 0.0000 0.0000 
0.0200 0.0000 -0.0201 0.0200 0.0000 0.0000 
0.0300 0.0000 -0.0201 0.0300 0.0000 0.0000 
0.0400 0.0000 -0.0201 0.0400 0.0000 0.0000 
0.0500 0.0000 -0.0201 0.0500 0.0000 0.0000 
0.0600 0.0000 -0.0201 0.0600 0.0000 0.0000 
0.0700 0.0000 -0.0201 0.0700 0.0000 0.0000 
0.0800 0.0000 -0.0201 0.0800 0.0000 0.0000 
0.0900 0.0000 -0.0201 0.0900 0.0000 0.0000 
0.1000 0.0000 -0.0201 0.1000 0.0000 0.0000 
0.0000 0.0100 -0.0201 0.0000 0.0100 0.0000 
0.0100 0.0100 -0.0201 0.0100 0.0100 0.0000 
0.0200 0.0100 -0.0201 0.0200 0.0100 0.0000 
0.0300 0.0100 -0.0201 0.0300 0.0100 0.0000 
0.0400 0.0100 -0.0201 0.0400 0.0100 0.0000 
0.0500 0.0100 -0.0201 0.0500 0.0100 0.0000 
0.0600 0.0100 -0.0201 0.0600 0.0100 0.0000 
0.0700 0.0100 -0.0201 0.0700 0.0100 0.0000 
0.0800 0.0100 -0.0201 0.0800 0.0100 0.0000 
0.0900 0.0100 -0.0201 0.0900 0.0100 0.0000 
0.1000 0.0100 -0.0201 0.1000 0.0100 0.0000 
0.0000 0.0200 -0.0201 0.0000 0.0200 0.0000 
0.0100 0.0200 -0.0201 0.0100 0.0200 0.0000 
0.0200 0.0200 -0.0201 0.0200 0.0200 0.0000 
0.0300 0.0200 -0.0201 0.0300 0.0200 0.0000 
0.0400 0.0200 -0.0201 0.0400 0.0200 0.0000 
0.0500 0.0200 -0.0201 0.0500 0.0200 0.0000 
0.0600 0.0200 -0.0201 0.0600 0.0200 0.0000 
0.0700 0.0200 -0.0201 0.0700 0.0200 0.0000 
0.0800 0.0200 -0.0201 0.0800 0.0200 0.0000 
0.0900 0.0200 -0.0201 0.0900 0.0200 0.0000 
0.1000 0.0200 -0.0201 0.1000 0.0200 0.0000 
0.0000 0.0300 -0.0201 0.0000 0.0300 0.0000 
0.0100 0.0300 -0.0201 0.0100 0.0300 0.0000 
0.0200 0.0300 -0.0201 0.0200 0.0300 0.0000 
0.0300 0.0300 -0.0201 0.0300 0.0300 0.0000 
0.0400 0.0300 -0.0201 0.0400 0.0300 0.0000 
0.0500 0.0300 -0.0201 0.0500 0.0300 0.0000 
0.0600 0.0300 -0.0201 0.0600 0.0300 0.0000 
0.0700 0.0300 -0.0201 0.0700 0.0300 0.0000 
0.0800 0.0300 -0.0201 0.0800 0.0300 0.0000 
0.0900 0.0300 -0.0201 0.0900 0.0300 0.0000 
0.1000 0.0300 -0.0201 0.1000 0.0300 0.0000 
0.0000 0.0400 -0.0201 0.0000 0.0400 0.0000 
0.0100 0.0400 -0.0201 0.0100 0.0400 0.0000 
0.0200 0.0400 -0.0201 0.0200 0.0400 0.0000 
0.0300 0.0400 -0.0201 0.0300 0.0400 0.0000 
0.0400 0.0400 -0.0201 0.0400 0.0400 0.0000 
0.0500 0.0400 -0.0201 0.0500 0.0400 0.0000 
0.0600 0.0400 -0.0201 0.0600 0.0400 0.0000 
0.0700 0.0400 -0.0201 0.0700 0.0400 0.0000 
0.0800 0.0400 -0.0201 0.0800 0.0400 0.0000 
0.0900 0.0400 -0.0201 0.0900 0.0400 0.0000 
0.1000 0.0400 -0.0201 0.1000 0.0400 0.0000 
0.0000 0.0500 -0.0201 0.0000 0.0500 0.0000 
0.0100 0.0500 -0.0201 0.0100 0.0500 0.0000 
0.0200 0.0500 -0.0201 0.0200 0.0500 0.0000 
0.0300 0.0500 -0.0201 0.0300 0.0500 0.0000 
0.0400 0.0500 -0.0201 0.0400 0.0500 0.0000 
0.0500 0.0500 -0.0201 0.0500 0.0500 0.0000 
0.0600 0.0500 -0.0201 0.0600 0.0500 0.0000 
0.0700 0.0500 -0.0201 0.0700 0.0500 0.0000 
0.0800 0.0500 -0.0201 0.0800 0.0500 0.0000 
0.0900 0.0500 -0.0201 0.0900 0.0500 0.0000 
0.1000 0.0500 -0.0201 0.1000 0.0500 0.0000 
0.0000 0.0600 -0.0201 0.0000 0.0600 0.0000 
0.0100 0.0600 -0.0201 0.0100 0.0600 0.0000 
0.0200 0.0600 -0.0201 0.0200 0.0600 0.0000 
0.0300 0.0600 -0.0201 0.0300 0.0600 0.0000 
0.0400 0.0600 -0.0201 0.0400 0.0600 0.0000 
0.0500 0.0600 -0.0201 0.0500 0.0600 0.0000 
0.0600 0.0600 -0.0201 0.0600 0.0600 0.0000 
0.0700 0.0600 -0.0201 0.0700 0.0600 0.0000 
0.0800 0.0600 -0.0201 0.0800 0.0600 0.0000 
0.0900 0.0600 -0.0201 0.0900 0.0600 0.0000 
0.1000 0.0600 -0.0201 0.1000 0.0600 0.0000 
0.0000 0.0700 -0.0201 0.0000 0.0700 0.0000 
0.0100 0.0700 -0.0201 0.0100 0.0700 0.0000 
0.0200 0.0700 -0.0201 0.0200 0.0700 0.0000 
0.0300 0.0700 -0.0201 0.0300 0.0700 0.0000 
0.0400 0.0700 -0.0201 0.0400 0.0700 0.0000 
0.0500 0.0700 -0.0201 0.0500 0.0700 0.0000 
0.0600 0.0700 -0.0201 0.0600 0.0700 0.0000 
0.0700 0.0700 -0.0201 0.0700 0.0700 0.0000 
0.0800 0.0700 -0.0201 0.0800 0.0700 0.0000 
0.0900 0.0700 -0.0201 0.0900 0.0700 0.0000 
0.1000 0.0700 -0.0201 0.1000 0.0700 0.0000 
0.0000 0.0800 -0.0201 0.0000 0.0800 0.0000 
0.0100 0.0800 -0.0201 0.0100 0.0800 0.0000 
0.0200 0.0800 -0.0201 0.0200 0.0800 0.0000 
0.0300 0.0800 -0.0201 0.0300 0.0800 0.0000 
0.0400 0.0800 -0.0201 0.0400 0.0800 0.0000 
0.0500 0.0800 -0.0201 0.0500 0.0800 0.0000 
0.0600 0.0800 -0.0201 0.0600 0.0800 0.0000 
0.0700 0.0800 -0.0201 0.0700 0.0800 0.0000 
0.0800 0.0800 -0.0201 0.0800 0.0800 0.0000 
0.0900 0.0800 -0.0201 0.0900 0.0800 0.0000 
0.1000 0.0800 -0.0201 0.1000 0.0800 0.0000 
0.0000 0.0900 -0.0201 0.0000 0.0900 0.0000 
0.0100 0.0900 -0.0201 0.0100 0.0900 0.0000 
0.0200 0.0900 -0.0201 0.0200 0.0900 0.0000 
0.0300 0.0900 -0.0201 0.0300 0.0900 0.0000 
0.0400 0.0900 -0.0201 0.0400 0.0900 0.0000 
0.0500 0.0900 -0.0201 0.0500 0.0900 0.0000 
0.0600 0.0900 -0.0201 0.0600 0.0900 0.0000 
0.0700 0.0900 -0.0201 0.0700 0.0900 0.0000 
0.0800 0.0900 -0.0201 0.0800 0.0900 0.0000 
0.0900 0.0900 -0.0201 0.0900 0.0900 0.0000 
0.1000 0.0900 -0.0201 0.1000 0.0900 0.0000 
0.0000 0.1000 -0.0201 0.0000 0.1000 0.0000 
0.0100 0.1000 -0.0201 0.0100 0.1000 0.0000 
0.0200 0.1000 -0.0201 0.0200 0.1000 0.0000 
0.0300 0.1000 -0.0201 0.0300 0.1000 0.0000 
0.0400 0.1000 -0.0201 0.0400 0.1000 0.0000 
0.0500 0.1000 -0.0201 0.0500 0.1000 0.0000 
0.0600 0.1000 -0.0201 0.0600 0.1000 0.0000 
0.0700 0.1000 -0.0201 0.0700 0.1000 0.0000 
0.0800 0.1000 -0.0201 0.0800 0.1000 0.0000 
0.0900 0.1000 -0.0201 0.0900 0.1000 0.0000 
0.1000 0.1000 -0.0201 0.1000 0.1000 0.0000 
/

ZCORN
 -0.0201 -0.0201 -0.0201 -0.0201 -0.0201 -0.0201 -0.0201 -0.0201
 -0.0201 -0.0201 -0.0201 -0.0201 -0.0201 -0.0201 -0.0201 -0.0201
 -0.0201 -0.0201 -0.0201 -0.0201 -0.0201 -0.0201 -0.0201 -0.0201
 -0.0201 -0.0201 -0.0201 -0.0201 -0.0201 -0.0201 -0.0201 -0.0201
 -0.0201 -0.0201 -0.0201 -0.0201 -0.0201 -0.0201 -0.0201 -0.0201
 -0.0201 -0.0201 -0.0201 -0.0201 -0.0201 -0.0201 -0.0201 -0.0201
 -0.0201 -0.0201 -0.0201 -0.0201 -0.0201 -0.0201 -0.0201 -0.0201
 -0.0201 -0.0201 -0.0201 -0.0201 -0.0201 -0.0201 -0.0201 -0.0201
 -0.0201 -0.0201 -0.0201 -0.0201 -0.0201 -0.0201 -0.0201 -0.0201
 -0.0201 -0.0201 -0.0201 -0.0201 -0.0201 -0.0201 -0.0201 -0.0201
 -0.0201 -0.0201 -0.0201 -0.0201 -0.0201 -0.0201 -0.0201 -0.0201
 -0.0201 -0.0201 -0.0201 -0.0201 -0.0201 -0.0201 -0.0201 -0.0201
 -0.0201 -0.0201 -0.0201 -0.0201 -0.0201 -0.0201 -0.0201 -0.0201
 -0.0201 -0.0201 -0.0201 -0.0201 -0.0201 -0.0201 -0.0201 -0.0201
 -0.0201 -0.0201 -0.0201 -0.0201 -0.0201 -0.0201 -0.0201 -0.0201
 -0.0201 -0.0201 -0.0201 -0.0201 -0.0201 -0.0201 -0.0201 -0.0201
 -0.0201 -0.0201 -0.0201 -0.0201 -0.0201 -0.0201 -0.0201 -0.0201
 -0.0201 -0.0201 -0.0201 -0.0201 -0.0201 -0.0201 -0.0201 -0.0201
 -0.0201 -0.0201 -0.0201 -0.0201 -0.0201 -0.0201 -0.0201 -0.0201
 -0.0201 -0.0201 -0.0201 -0.0201 -0.0201 -0.0201 -0.0201 -0.0201
 -0.0201 -0.0201 -0.0201 -0.0201 -0.0201 -0.0201 -0.0201 -0.0201
 -0.0201 -0.0201 -0.0201 -0.0201 -0.0201 -0.0201 -0.0201 -0.0201
 -0.0201 -0.0201 -0.0201 -0.0201 -0.0201 -0.0201 -0.0201 -0.0201
 -0.0201 -0.0201 -0.0201 -0.0201 -0.0201 -0.0201 -0.0201 -0.0201
 -0.0201 -0.0201 -0.0201 -0.0201 -0.0201 -0.0201 -0.0201 -0.0201
 -0.0201 -0.0201 -0.0201 -0.0201 -0.0201 -0.0201 -0.0201 -0.0201
 -0.0201 -0.0201 -0.0201 -0.0201 -0.0201 -0.0201 -0.0201 -0.0201
 -0.0201 -0.0201 -0.0201 -0.0201 -0.0201 -0.0201 -0.0201 -0.0201
 -0.0201 -0.0201 -0.0201 -0.0201 -0.0201 -0.0201 -0.0201 -0.0201
 -0.0201 -0.0201 -0.0201 -0.0201 -0.0201 -0.0201 -0.0201 -0.0201
 -0.0201 -0.0201 -0.0201 -0.0201 -0.0201 -0.0201 -0.0201 -0.0201
 -0.0201 -0.0201 -0.0201 -0.0201 -0.0201 -0.0201 -0.0201 -0.0201
 -0.0201 -0.0201 -0.0201 -0.0201 -0.0201 -0.0201 -0.0201 -0.0201
 -0.0201 -0.0201 -0.0201 -0.0201 -0.0201 -0.0201 -0.0201 -0.0201
 -0.0201 -0.0201 -0.0201 -0.0201 -0.0201 -0.0201 -0.0201 -0.0201
 -0.0201 -0.0201 -0.0201 -0.0201 -0.0201 -0.0201 -0.0201 -0.0201
 -0.0201 -0.0201 -0.0201 -0.0201 -0.0201 -0.0201 -0.0201 -0.0201
 -0.0201 -0.0201 -0.0201 -0.0201 -0.0201 -0.0201 -0.0201 -0.0201
 -0.0201 -0.0201 -0.0201 -0.0201 -0.0201 -0.0201 -0.0201 -0.0201
 -0.0201 -0.0201 -0.0201 -0.0201 -0.0201 -0.0201 -0.0201 -0.0201
 -0.0201 -0.0201 -0.0201 -0.0201 -0.0201 -0.0201 -0.0201 -0.0201
 -0.0201 -0.0201 -0.0201 -0.0201 -0.0201 -0.0201 -0.0201 -0.0201
 -0.0201 -0.0201 -0.0201 -0.0201 -0.0201 -0.0201 -0.0201 -0.0201
 -0.0201 -0.0201 -0.0201 -0.0201 -0.0201 -0.0201 -0.0201 -0.0201
 -0.0201 -0.0201 -0.0201 -0.0201 -0.0201 -0.0201 -0.0201 -0.0201
 -0.0201 -0.0201 -0.0201 -0.0201 -0.0201 -0.0201 -0.0201 -0.0201
 -0.0201 -0.0201 -0.0201 -0.0201 -0.0201 -0.0201 -0.0201 -0.0201
 -0.0201 -0.0201 -0.0201 -0.0201 -0.0201 -0.0201 -0.0201 -0.0201
 -0.0201 -0.0201 -0.0201 -0.0201 -0.0201 -0.0201 -0.0201 -0.0201
 -0.0201 -0.0201 -0.0201 -0.0201 -0.0201 -0.0201 -0.0201 -0.0201
 -0.0201 -0.0199 -0.0199 -0.0192 -0.0192 -0.0188 -0.0188 -0.0188
 -0.0188 -0.0188 -0.0188 -0.0188 -0.0188 -0.0188 -0.0188 -0.0188
 -0.0188 -0.0188 -0.0188 -0.0188 -0.0195 -0.0189 -0.0189 -0.0188
 -0.0188 -0.0188 -0.0188 -0.0188 -0.0188 -0.0188 -0.0188 -0.0188
 -0.0188 -0.0188 -0.0188 -0.0188 -0.0188 -0.0188 -0.0188 -0.0188
 -0.0195 -0.0189 -0.0189 -0.0188 -0.0188 -0.0188 -0.0188 -0.0188
 -0.0188 -0.0188 -0.0188 -0.0188 -0.0188 -0.0188 -0.0188 -0.0188
 -0.0188 -0.0188 -0.0188 -0.0188 -0.0188 -0.0188 -0.0188 -0.0188
 -0.0188 -0.0188 -0.0188 -0.0188 -0.0188 -0.0188 -0.0188 -0.0188
 -0.0188 -0.0188 -0.0188 -0.0188 -0.0188 -0.0188 -0.0188 -0.0188
 -0.0188 -0.0188 -0.0188 -0.0188 -0.0188 -0.0188 -0.0188 -0.0188
 -0.0188 -0.0188 -0.0188 -0.0188 -0.0188 -0.0188 -0.0188 -0.0188
 -0.0188 -0.0188 -0.0188 -0.0188 -0.0188 -0.0188 -0.0188 -0.0188
 -0.0188 -0.0188 -0.0188 -0.0188 -0.0188 -0.0188 -0.0188 -0.0188
 -0.0188 -0.0188 -0.0188 -0.0188 -0.0188 -0.0188 -0.0188 -0.0188
 -0.0188 -0.0188 -0.0188 -0.0188 -0.0188 -0.0188 -0.0188 -0.0188
 -0.0188 -0.0188 -0.0188 -0.0188 -0.0188 -0.0188 -0.0188 -0.0188
 -0.0188 -0.0188 -0.0188 -0.0188 -0.0188 -0.0188 -0.0188 -0.0188
 -0.0188 -0.0188 -0.0188 -0.0188 -0.0188 -0.0188 -0.0188 -0.0188
 -0.0188 -0.0188 -0.0188 -0.0188 -0.0188 -0.0188 -0.0188 -0.0191
 -0.0188 -0.0188 -0.0188 -0.0188 -0.0188 -0.0188 -0.0188 -0.0188
 -0.0188 -0.0188 -0.0188 -0.0188 -0.0188 -0.0188 -0.0188 -0.0188
 -0.0188 -0.0188 -0.0188 -0.0191 -0.0188 -0.0188 -0.0188 -0.0188
 -0.0188 -0.0188 -0.0188 -0.0188 -0.0188 -0.0188 -0.0188 -0.0188
 -0.0188 -0.0188 -0.0188 -0.0191 -0.0191 -0.0197 -0.0197 -0.0201
 -0.0188 -0.0188 -0.0188 -0.0188 -0.0188 -0.0188 -0.0188 -0.0188
 -0.0188 -0.0188 -0.0188 -0.0188 -0.0188 -0.0188 -0.0188 -0.0191
 -0.0191 -0.0197 -0.0197 -0.0201 -0.0188 -0.0188 -0.0188 -0.0188
 -0.0188 -0.0188 -0.0188 -0.0188 -0.0188 -0.0188 -0.0188 -0.0190
 -0.0190 -0.0197 -0.0197 -0.0201 -0.0201 -0.0201 -0.0201 -0.0201
 -0.0188 -0.0188 -0.0188 -0.0188 -0.0188 -0.0188 -0.0188 -0.0188
 -0.0188 -0.0188 -0.0188 -0.0190 -0.0190 -0.0197 -0.0197 -0.0201
 -0.0201 -0.0201 -0.0201 -0.0201 -0.0188 -0.0188 -0.0188 -0.0188
 -0.0188 -0.0188 -0.0188 -0.0189 -0.0189 -0.0196 -0.0196 -0.0201
 -0.0201 -0.0201 -0.0201 -0.0201 -0.0201 -0.0201 -0.0201 -0.0201
 -0.0188 -0.0188 -0.0188 -0.0188 -0.0188 -0.0188 -0.0188 -0.0189
 -0.0189 -0.0196 -0.0196 -0.0201 -0.0201 -0.0201 -0.0201 -0.0201
 -0.0201 -0.0201 -0.0201 -0.0201 -0.0188 -0.0188 -0.0188 -0.0188
 -0.0188 -0.0194 -0.0194 -0.0200 -0.0200 -0.0201 -0.0201 -0.0201
 -0.0201 -0.0201 -0.0201 -0.0201 -0.0201 -0.0201 -0.0201 -0.0201
 -0.0188 -0.0188 -0.0188 -0.0188 -0.0188 -0.0194 -0.0194 -0.0200
 -0.0200 -0.0201 -0.0201 -0.0201 -0.0201 -0.0201 -0.0201 -0.0201
 -0.0201 -0.0201 -0.0201 -0.0201 -0.0188 -0.0192 -0.0192 -0.0198
 -0.0198 -0.0201 -0.0201 -0.0201 -0.0201 -0.0201 -0.0201 -0.0201
 -0.0201 -0.0201 -0.0201 -0.0201 -0.0201 -0.0201 -0.0201 -0.0201
 -0.0188 -0.0192 -0.0192 -0.0198 -0.0198 -0.0201 -0.0201 -0.0201
 -0.0201 -0.0201 -0.0201 -0.0201 -0.0201 -0.0201 -0.0201 -0.0201
 -0.0201 -0.0201 -0.0201 -0.0201 -0.0195 -0.0201 -0.0201 -0.0201
 -0.0201 -0.0201 -0.0201 -0.0201 -0.0201 -0.0201 -0.0201 -0.0201
 -0.0201 -0.0201 -0.0201 -0.0201 -0.0201 -0.0201 -0.0201 -0.0201
 -0.0201 -0.0199 -0.0199 -0.0192 -0.0192 -0.0188 -0.0188 -0.0188
 -0.0188 -0.0188 -0.0188 -0.0188 -0.0188 -0.0188 -0.0188 -0.0188
 -0.0188 -0.0188 -0.0188 -0.0188 -0.0195 -0.0189 -0.0189 -0.0188
 -0.0188 -0.0188 -0.0188 -0.0188 -0.0188 -0.0188 -0.0188 -0.0188
 -0.0188 -0.0188 -0.0188 -0.0188 -0.0188 -0.0188 -0.0188 -0.0188
 -0.0195 -0.0189 -0.0189 -0.0188 -0.0188 -0.0188 -0.0188 -0.0188
 -0.0188 -0.0188 -0.0188 -0.0188 -0.0188 -0.0188 -0.0188 -0.0188
 -0.0188 -0.0188 -0.0188 -0.0188 -0.0188 -0.0188 -0.0188 -0.0188
 -0.0188 -0.0188 -0.0188 -0.0188 -0.0188 -0.0188 -0.0188 -0.0188
 -0.0188 -0.0188 -0.0188 -0.0188 -0.0188 -0.0188 -0.0188 -0.0188
 -0.0188 -0.0188 -0.0188 -0.0188 -0.0188 -0.0188 -0.0188 -0.0188
 -0.0188 -0.0188 -0.0188 -0.0188 -0.0188 -0.0188 -0.0188 -0.0188
 -0.0188 -0.0188 -0.0188 -0.0188 -0.0188 -0.0188 -0.0188 -0.0188
 -0.0188 -0.0188 -0.0188 -0.0188 -0.0188 -0.0188 -0.0188 -0.0188
 -0.0188 -0.0188 -0.0188 -0.0188 -0.0188 -0.0188 -0.0188 -0.0188
 -0.0188 -0.0188 -0.0188 -0.0188 -0.0188 -0.0188 -0.0188 -0.0188
 -0.0188 -0.0188 -0.0188 -0.0188 -0.0188 -0.0188 -0.0188 -0.0188
 -0.0188 -0.0188 -0.0188 -0.0188 -0.0188 -0.0188 -0.0188 -0.0188
 -0.0188 -0.0188 -0.0188 -0.0188 -0.0188 -0.0188 -0.0188 -0.0188
 -0.0188 -0.0188 -0.0188 -0.0188 -0.0188 -0.0188 -0.0188 -0.0191
 -0.0188 -0.0188 -0.0188 -0.0188 -0.0188 -0.0188 -0.0188 -0.0188
 -0.0188 -0.0188 -0.0188 -0.0188 -0.0188 -0.0188 -0.0188 -0.0188
 -0.0188 -0.0188 -0.0188 -0.0191 -0.0188 -0.0188 -0.0188 -0.0188
 -0.0188 -0.0188 -0.0188 -0.0188 -0.0188 -0.0188 -0.0188 -0.0188
 -0.0188 -0.0188 -0.0188 -0.0191 -0.0191 -0.0197 -0.0197 -0.0201
 -0.0188 -0.0188 -0.0188 -0.0188 -0.0188 -0.0188 -0.0188 -0.0188
 -0.0188 -0.0188 -0.0188 -0.0188 -0.0188 -0.0188 -0.0188 -0.0191
 -0.0191 -0.0197 -0.0197 -0.0201 -0.0188 -0.0188 -0.0188 -0.0188
 -0.0188 -0.0188 -0.0188 -0.0188 -0.0188 -0.0188 -0.0188 -0.0190
 -0.0190 -0.0197 -0.0197 -0.0201 -0.0201 -0.0201 -0.0201 -0.0201
 -0.0188 -0.0188 -0.0188 -0.0188 -0.0188 -0.0188 -0.0188 -0.0188
 -0.0188 -0.0188 -0.0188 -0.0190 -0.0190 -0.0197 -0.0197 -0.0201
 -0.0201 -0.0201 -0.0201 -0.0201 -0.0188 -0.0188 -0.0188 -0.0188
 -0.0188 -0.0188 -0.0188 -0.0189 -0.0189 -0.0196 -0.0196 -0.0201
 -0.0201 -0.0201 -0.0201 -0.0201 -0.0201 -0.0201 -0.0201 -0.0201
 -0.0188 -0.0188 -0.0188 -0.0188 -0.0188 -0.0188 -0.0188 -0.0189
 -0.0189 -0.0196 -0.0196 -0.0201 -0.0201 -0.0201 -0.0201 -0.0201
 -0.0201 -0.0201 -0.0201 -0.0201 -0.0188 -0.0188 -0.0188 -0.0188
 -0.0188 -0.0194 -0.0194 -0.0200 -0.0200 -0.0201 -0.0201 -0.0201
 -0.0201 -0.0201 -0.0201 -0.0201 -0.0201 -0.0201 -0.0201 -0.0201
 -0.0188 -0.0188 -0.0188 -0.0188 -0.0188 -0.0194 -0.0194 -0.0200
 -0.0200 -0.0201 -0.0201 -0.0201 -0.0201 -0.0201 -0.0201 -0.0201
 -0.0201 -0.0201 -0.0201 -0.0201 -0.0188 -0.0192 -0.0192 -0.0198
 -0.0198 -0.0201 -0.0201 -0.0201 -0.0201 -0.0201 -0.0201 -0.0201
 -0.0201 -0.0201 -0.0201 -0.0201 -0.0201 -0.0201 -0.0201 -0.0201
 -0.0188 -0.0192 -0.0192 -0.0198 -0.0198 -0.0201 -0.0201 -0.0201
 -0.0201 -0.0201 -0.0201 -0.0201 -0.0201 -0.0201 -0.0201 -0.0201
 -0.0201 -0.0201 -0.0201 -0.0201 -0.0195 -0.0201 -0.0201 -0.0201
 -0.0201 -0.0201 -0.0201 -0.0201 -0.0201 -0.0201 -0.0201 -0.0201
 -0.0201 -0.0201 -0.0201 -0.0201 -0.0201 -0.0201 -0.0201 -0.0201
 -0.0201 -0.0199 -0.0199 -0.0192 -0.0192 -0.0186 -0.0186 -0.0180
 -0.0180 -0.0174 -0.0174 -0.0173 -0.0173 -0.0173 -0.0173 -0.0173
 -0.0173 -0.0173 -0.0173 -0.0173 -0.0195 -0.0189 -0.0189 -0.0182
 -0.0182 -0.0176 -0.0176 -0.0173 -0.0173 -0.0173 -0.0173 -0.0173
 -0.0173 -0.0173 -0.0173 -0.0173 -0.0173 -0.0173 -0.0173 -0.0173
 -0.0195 -0.0189 -0.0189 -0.0182 -0.0182 -0.0176 -0.0176 -0.0173
 -0.0173 -0.0173 -0.0173 -0.0173 -0.0173 -0.0173 -0.0173 -0.0173
 -0.0173 -0.0173 -0.0173 -0.0173 -0.0184 -0.0178 -0.0178 -0.0173
 -0.0173 -0.0173 -0.0173 -0.0173 -0.0173 -0.0173 -0.0173 -0.0173
 -0.0173 -0.0173 -0.0173 -0.0173 -0.0173 -0.0173 -0.0173 -0.0173
 -0.0184 -0.0178 -0.0178 -0.0173 -0.0173 -0.0173 -0.0173 -0.0173
 -0.0173 -0.0173 -0.0173 -0.0173 -0.0173 -0.0173 -0.0173 -0.0173
 -0.0173 -0.0173 -0.0173 -0.0173 -0.0173 -0.0173 -0.0173 -0.0173
 -0.0173 -0.0173 -0.0173 -0.0173 -0.0173 -0.0173 -0.0173 -0.0173
 -0.0173 -0.0173 -0.0173 -0.0173 -0.0173 -0.0174 -0.0174 -0.0180
 -0.0173 -0.0173 -0.0173 -0.0173 -0.0173 -0.0173 -0.0173 -0.0173
 -0.0173 -0.0173 -0.0173 -0.0173 -0.0173 -0.0173 -0.0173 -0.0173
 -0.0173 -0.0174 -0.0174 -0.0180 -0.0173 -0.0173 -0.0173 -0.0173
 -0.0173 -0.0173 -0.0173 -0.0173 -0.0173 -0.0173 -0.0173 -0.0173
 -0.0173 -0.0173 -0.0173 -0.0179 -0.0179 -0.0185 -0.0185 -0.0191
 -0.0173 -0.0173 -0.0173 -0.0173 -0.0173 -0.0173 -0.0173 -0.0173
 -0.0173 -0.0173 -0.0173 -0.0173 -0.0173 -0.0173 -0.0173 -0.0179
 -0.0179 -0.0185 -0.0185 -0.0191 -0.0173 -0.0173 -0.0173 -0.0173
 -0.0173 -0.0173 -0.0173 -0.0173 -0.0173 -0.0173 -0.0173 -0.0178
 -0.0178 -0.0184 -0.0184 -0.0191 -0.0191 -0.0197 -0.0197 -0.0201
 -0.0173 -0.0173 -0.0173 -0.0173 -0.0173 -0.0173 -0.0173 -0.0173
 -0.0173 -0.0173 -0.0173 -0.0178 -0.0178 -0.0184 -0.0184 -0.0191
 -0.0191 -0.0197 -0.0197 -0.0201 -0.0173 -0.0173 -0.0173 -0.0173
 -0.0173 -0.0173 -0.0173 -0.0178 -0.0178 -0.0184 -0.0184 -0.0190
 -0.0190 -0.0197 -0.0197 -0.0201 -0.0201 -0.0201 -0.0201 -0.0201
 -0.0173 -0.0173 -0.0173 -0.0173 -0.0173 -0.0173 -0.0173 -0.0178
 -0.0178 -0.0184 -0.0184 -0.0190 -0.0190 -0.0197 -0.0197 -0.0201
 -0.0201 -0.0201 -0.0201 -0.0201 -0.0173 -0.0173 -0.0173 -0.0177
 -0.0177 -0.0183 -0.0183 -0.0189 -0.0189 -0.0196 -0.0196 -0.0201
 -0.0201 -0.0201 -0.0201 -0.0201 -0.0201 -0.0201 -0.0201 -0.0201
 -0.0173 -0.0173 -0.0173 -0.0177 -0.0177 -0.0183 -0.0183 -0.0189
 -0.0189 -0.0196 -0.0196 -0.0201 -0.0201 -0.0201 -0.0201 -0.0201
 -0.0201 -0.0201 -0.0201 -0.0201 -0.0175 -0.0181 -0.0181 -0.0188
 -0.0188 -0.0194 -0.0194 -0.0200 -0.0200 -0.0201 -0.0201 -0.0201
 -0.0201 -0.0201 -0.0201 -0.0201 -0.0201 -0.0201 -0.0201 -0.0201
 -0.0175 -0.0181 -0.0181 -0.0188 -0.0188 -0.0194 -0.0194 -0.0200
 -0.0200 -0.0201 -0.0201 -0.0201 -0.0201 -0.0201 -0.0201 -0.0201
 -0.0201 -0.0201 -0.0201 -0.0201 -0.0186 -0.0192 -0.0192 -0.0198
 -0.0198 -0.0201 -0.0201 -0.0201 -0.0201 -0.0201 -0.0201 -0.0201
 -0.0201 -0.0201 -0.0201 -0.0201 -0.0201 -0.0201 -0.0201 -0.0201
 -0.0186 -0.0192 -0.0192 -0.0198 -0.0198 -0.0201 -0.0201 -0.0201
 -0.0201 -0.0201 -0.0201 -0.0201 -0.0201 -0.0201 -0.0201 -0.0201
 -0.0201 -0.0201 -0.0201 -0.0201 -0.0195 -0.0201 -0.0201 -0.0201
 -0.0201 -0.0201 -0.0201 -0.0201 -0.0201 -0.0201 -0.0201 -0.0201
 -0.0201 -0.0201 -0.0201 -0.0201 -0.0201 -0.0201 -0.0201 -0.0201
 -0.0201 -0.0199 -0.0199 -0.0192 -0.0192 -0.0186 -0.0186 -0.0180
 -0.0180 -0.0174 -0.0174 -0.0173 -0.0173 -0.0173 -0.0173 -0.0173
 -0.0173 -0.0173 -0.0173 -0.0173 -0.0195 -0.0189 -0.0189 -0.0182
 -0.0182 -0.0176 -0.0176 -0.0173 -0.0173 -0.0173 -0.0173 -0.0173
 -0.0173 -0.0173 -0.0173 -0.0173 -0.0173 -0.0173 -0.0173 -0.0173
 -0.0195 -0.0189 -0.0189 -0.0182 -0.0182 -0.0176 -0.0176 -0.0173
 -0.0173 -0.0173 -0.0173 -0.0173 -0.0173 -0.0173 -0.0173 -0.0173
 -0.0173 -0.0173 -0.0173 -0.0173 -0.0184 -0.0178 -0.0178 -0.0173
 -0.0173 -0.0173 -0.0173 -0.0173 -0.0173 -0.0173 -0.0173 -0.0173
 -0.0173 -0.0173 -0.0173 -0.0173 -0.0173 -0.0173 -0.0173 -0.0173
 -0.0184 -0.0178 -0.0178 -0.0173 -0.0173 -0.0173 -0.0173 -0.0173
 -0.0173 -0.0173 -0.0173 -0.0173 -0.0173 -0.0173 -0.0173 -0.0173
 -0.0173 -0.0173 -0.0173 -0.0173 -0.0173 -0.0173 -0.0173 -0.0173
 -0.0173 -0.0173 -0.0173 -0.0173 -0.0173 -0.0173 -0.0173 -0.0173
 -0.0173 -0.0173 -0.0173 -0.0173 -0.0173 -0.0174 -0.0174 -0.0180
 -0.0173 -0.0173 -0.0173 -0.0173 -0.0173 -0.0173 -0.0173 -0.0173
 -0.0173 -0.0173 -0.0173 -0.0173 -0.0173 -0.0173 -0.0173 -0.0173
 -0.0173 -0.0174 -0.0174 -0.0180 -0.0173 -0.0173 -0.0173 -0.0173
 -0.0173 -0.0173 -0.0173 -0.0173 -0.0173 -0.0173 -0.0173 -0.0173
 -0.0173 -0.0173 -0.0173 -0.0179 -0.0179 -0.0185 -0.0185 -0.0191
 -0.0173 -0.0173 -0.0173 -0.0173 -0.0173 -0.0173 -0.0173 -0.0173
 -0.0173 -0.0173 -0.0173 -0.0173 -0.0173 -0.0173 -0.0173 -0.0179
 -0.0179 -0.0185 -0.0185 -0.0191 -0.0173 -0.0173 -0.0173 -0.0173
 -0.0173 -0.0173 -0.0173 -0.0173 -0.0173 -0.0173 -0.0173 -0.0178
 -0.0178 -0.0184 -0.0184 -0.0191 -0.0191 -0.0197 -0.0197 -0.0201
 -0.0173 -0.0173 -0.0173 -0.0173 -0.0173 -0.0173 -0.0173 -0.0173
 -0.0173 -0.0173 -0.0173 -0.0178 -0.0178 -0.0184 -0.0184 -0.0191
 -0.0191 -0.0197 -0.0197 -0.0201 -0.0173 -0.0173 -0.0173 -0.0173
 -0.0173 -0.0173 -0.0173 -0.0178 -0.0178 -0.0184 -0.0184 -0.0190
 -0.0190 -0.0197 -0.0197 -0.0201 -0.0201 -0.0201 -0.0201 -0.0201
 -0.0173 -0.0173 -0.0173 -0.0173 -0.0173 -0.0173 -0.0173 -0.0178
 -0.0178 -0.0184 -0.0184 -0.0190 -0.0190 -0.0197 -0.0197 -0.0201
 -0.0201 -0.0201 -0.0201 -0.0201 -0.0173 -0.0173 -0.0173 -0.0177
 -0.0177 -0.0183 -0.0183 -0.0189 -0.0189 -0.0196 -0.0196 -0.0201
 -0.0201 -0.0201 -0.0201 -0.0201 -0.0201 -0.0201 -0.0201 -0.0201
 -0.0173 -0.0173 -0.0173 -0.0177 -0.0177 -0.0183 -0.0183 -0.0189
 -0.0189 -0.0196 -0.0196 -0.0201 -0.0201 -0.0201 -0.0201 -0.0201
 -0.0201 -0.0201 -0.0201 -0.0201 -0.0175 -0.0181 -0.0181 -0.0188
 -0.0188 -0.0194 -0.0194 -0.0200 -0.0200 -0.0201 -0.0201 -0.0201
 -0.0201 -0.0201 -0.0201 -0.0201 -0.0201 -0.0201 -0.0201 -0.0201
 -0.0175 -0.0181 -0.0181 -0.0188 -0.0188 -0.0194 -0.0194 -0.0200
 -0.0200 -0.0201 -0.0201 -0.0201 -0.0201 -0.0201 -0.0201 -0.0201
 -0.0201 -0.0201 -0.0201 -0.0201 -0.0186 -0.0192 -0.0192 -0.0198
 -0.0198 -0.0201 -0.0201 -0.0201 -0.0201 -0.0201 -0.0201 -0.0201
 -0.0201 -0.0201 -0.0201 -0.0201 -0.0201 -0.0201 -0.0201 -0.0201
 -0.0186 -0.0192 -0.0192 -0.0198 -0.0198 -0.0201 -0.0201 -0.0201
 -0.0201 -0.0201 -0.0201 -0.0201 -0.0201 -0.0201 -0.0201 -0.0201
 -0.0201 -0.0201 -0.0201 -0.0201 -0.0195 -0.0201 -0.0201 -0.0201
 -0.0201 -0.0201 -0.0201 -0.0201 -0.0201 -0.0201 -0.0201 -0.0201
 -0.0201 -0.0201 -0.0201 -0.0201 -0.0201 -0.0201 -0.0201 -0.0201
 -0.0201 -0.0199 -0.0199 -0.0192 -0.0192 -0.0186 -0.0186 -0.0180
 -0.0180 -0.0174 -0.0174 -0.0169 -0.0169 -0.0165 -0.0165 -0.0162
 -0.0162 -0.0160 -0.0160 -0.0160 -0.0195 -0.0189 -0.0189 -0.0182
 -0.0182 -0.0176 -0.0176 -0.0171 -0.0171 -0.0166 -0.0166 -0.0163
 -0.0163 -0.0161 -0.0161 -0.0160 -0.0160 -0.0161 -0.0161 -0.0163
 -0.0195 -0.0189 -0.0189 -0.0182 -0.0182 -0.0176 -0.0176 -0.0171
 -0.0171 -0.0166 -0.0166 -0.0163 -0.0163 -0.0161 -0.0161 -0.0160
 -0.0160 -0.0161 -0.0161 -0.0163 -0.0184 -0.0178 -0.0178 -0.0172
 -0.0172 -0.0168 -0.0168 -0.0164 -0.0164 -0.0161 -0.0161 -0.0160
 -0.0160 -0.0160 -0.0160 -0.0162 -0.0162 -0.0165 -0.0165 -0.0170
 -0.0184 -0.0178 -0.0178 -0.0172 -0.0172 -0.0168 -0.0168 -0.0164
 -0.0164 -0.0161 -0.0161 -0.0160 -0.0160 -0.0160 -0.0160 -0.0162
 -0.0162 -0.0165 -0.0165 -0.0170 -0.0173 -0.0168 -0.0168 -0.0164
 -0.0164 -0.0162 -0.0162 -0.0160 -0.0160 -0.0160 -0.0160 -0.0162
 -0.0162 -0.0165 -0.0165 -0.0169 -0.0169 -0.0174 -0.0174 -0.0180
 -0.0173 -0.0168 -0.0168 -0.0164 -0.0164 -0.0162 -0.0162 -0.0160
 -0.0160 -0.0160 -0.0160 -0.0162 -0.0162 -0.0165 -0.0165 -0.0169
 -0.0169 -0.0174 -0.0174 -0.0180 -0.0165 -0.0162 -0.0162 -0.0160
 -0.0160 -0.0160 -0.0160 -0.0162 -0.0162 -0.0164 -0.0164 -0.0168
 -0.0168 -0.0173 -0.0173 -0.0179 -0.0179 -0.0185 -0.0185 -0.0191
 -0.0165 -0.0162 -0.0162 -0.0160 -0.0160 -0.0160 -0.0160 -0.0162
 -0.0162 -0.0164 -0.0164 -0.0168 -0.0168 -0.0173 -0.0173 -0.0179
 -0.0179 -0.0185 -0.0185 -0.0191 -0.0160 -0.0160 -0.0160 -0.0161
 -0.0161 -0.0164 -0.0164 -0.0168 -0.0168 -0.0173 -0.0173 -0.0178
 -0.0178 -0.0184 -0.0184 -0.0191 -0.0191 -0.0197 -0.0197 -0.0201
 -0.0160 -0.0160 -0.0160 -0.0161 -0.0161 -0.0164 -0.0164 -0.0168
 -0.0168 -0.0173 -0.0173 -0.0178 -0.0178 -0.0184 -0.0184 -0.0191
 -0.0191 -0.0197 -0.0197 -0.0201 -0.0161 -0.0164 -0.0164 -0.0167
 -0.0167 -0.0172 -0.0172 -0.0178 -0.0178 -0.0184 -0.0184 -0.0190
 -0.0190 -0.0197 -0.0197 -0.0201 -0.0201 -0.0201 -0.0201 -0.0201
 -0.0161 -0.0164 -0.0164 -0.0167 -0.0167 -0.0172 -0.0172 -0.0178
 -0.0178 -0.0184 -0.0184 -0.0190 -0.0190 -0.0197 -0.0197 -0.0201
 -0.0201 -0.0201 -0.0201 -0.0201 -0.0167 -0.0171 -0.0171 -0.0177
 -0.0177 -0.0183 -0.0183 -0.0189 -0.0189 -0.0196 -0.0196 -0.0201
 -0.0201 -0.0201 -0.0201 -0.0201 -0.0201 -0.0201 -0.0201 -0.0201
 -0.0167 -0.0171 -0.0171 -0.0177 -0.0177 -0.0183 -0.0183 -0.0189
 -0.0189 -0.0196 -0.0196 -0.0201 -0.0201 -0.0201 -0.0201 -0.0201
 -0.0201 -0.0201 -0.0201 -0.0201 -0.0175 -0.0181 -0.0181 -0.0188
 -0.0188 -0.0194 -0.0194 -0.0200 -0.0200 -0.0201 -0.0201 -0.0201
 -0.0201 -0.0201 -0.0201 -0.0201 -0.0201 -0.0201 -0.0201 -0.0201
 -0.0175 -0.0181 -0.0181 -0.0188 -0.0188 -0.0194 -0.0194 -0.0200
 -0.0200 -0.0201 -0.0201 -0.0201 -0.0201 -0.0201 -0.0201 -0.0201
 -0.0201 -0.0201 -0.0201 -0.0201 -0.0186 -0.0192 -0.0192 -0.0198
 -0.0198 -0.0201 -0.0201 -0.0201 -0.0201 -0.0201 -0.0201 -0.0201
 -0.0201 -0.0201 -0.0201 -0.0201 -0.0201 -0.0201 -0.0201 -0.0201
 -0.0186 -0.0192 -0.0192 -0.0198 -0.0198 -0.0201 -0.0201 -0.0201
 -0.0201 -0.0201 -0.0201 -0.0201 -0.0201 -0.0201 -0.0201 -0.0201
 -0.0201 -0.0201 -0.0201 -0.0201 -0.0195 -0.0201 -0.0201 -0.0201
 -0.0201 -0.0201 -0.0201 -0.0201 -0.0201 -0.0201 -0.0201 -0.0201
 -0.0201 -0.0201 -0.0201 -0.0201 -0.0201 -0.0201 -0.0201 -0.0201
 -0.0201 -0.0199 -0.0199 -0.0192 -0.0192 -0.0186 -0.0186 -0.0180
 -0.0180 -0.0174 -0.0174 -0.0169 -0.0169 -0.0165 -0.0165 -0.0162
 -0.0162 -0.0160 -0.0160 -0.0160 -0.0195 -0.0189 -0.0189 -0.0182
 -0.0182 -0.0176 -0.0176 -0.0171 -0.0171 -0.0166 -0.0166 -0.0163
 -0.0163 -0.0161 -0.0161 -0.0160 -0.0160 -0.0161 -0.0161 -0.0163
 -0.0195 -0.0189 -0.0189 -0.0182 -0.0182 -0.0176 -0.0176 -0.0171
 -0.0171 -0.0166 -0.0166 -0.0163 -0.0163 -0.0161 -0.0161 -0.0160
 -0.0160 -0.0161 -0.0161 -0.0163 -0.0184 -0.0178 -0.0178 -0.0172
 -0.0172 -0.0168 -0.0168 -0.0164 -0.0164 -0.0161 -0.0161 -0.0160
 -0.0160 -0.0160 -0.0160 -0.0162 -0.0162 -0.0165 -0.0165 -0.0170
 -0.0184 -0.0178 -0.0178 -0.0172 -0.0172 -0.0168 -0.0168 -0.0164
 -0.0164 -0.0161 -0.0161 -0.0160 -0.0160 -0.0160 -0.0160 -0.0162
 -0.0162 -0.0165 -0.0165 -0.0170 -0.0173 -0.0168 -0.0168 -0.0164
 -0.0164 -0.0162 -0.0162 -0.0160 -0.0160 -0.0160 -0.0160 -0.0162
 -0.0162 -0.0165 -0.0165 -0.0169 -0.0169 -0.0174 -0.0174 -0.0180
 -0.0173 -0.0168 -0.0168 -0.0164 -0.0164 -0.0162 -0.0162 -0.0160
 -0.0160 -0.0160 -0.0160 -0.0162 -0.0162 -0.0165 -0.0165 -0.0169
 -0.0169 -0.0174 -0.0174 -0.0180 -0.0165 -0.0162 -0.0162 -0.0160
 -0.0160 -0.0160 -0.0160 -0.0162 -0.0162 -0.0164 -0.0164 -0.0168
 -0.0168 -0.0173 -0.0173 -0.0179 -0.0179 -0.0185 -0.0185 -0.0191
 -0.0165 -0.0162 -0.0162 -0.0160 -0.0160 -0.0160 -0.0160 -0.0162
 -0.0162 -0.0164 -0.0164 -0.0168 -0.0168 -0.0173 -0.0173 -0.0179
 -0.0179 -0.0185 -0.0185 -0.0191 -0.0160 -0.0160 -0.0160 -0.0161
 -0.0161 -0.0164 -0.0164 -0.0168 -0.0168 -0.0173 -0.0173 -0.0178
 -0.0178 -0.0184 -0.0184 -0.0191 -0.0191 -0.0197 -0.0197 -0.0201
 -0.0160 -0.0160 -0.0160 -0.0161 -0.0161 -0.0164 -0.0164 -0.0168
 -0.0168 -0.0173 -0.0173 -0.0178 -0.0178 -0.0184 -0.0184 -0.0191
 -0.0191 -0.0197 -0.0197 -0.0201 -0.0161 -0.0164 -0.0164 -0.0167
 -0.0167 -0.0172 -0.0172 -0.0178 -0.0178 -0.0184 -0.0184 -0.0190
 -0.0190 -0.0197 -0.0197 -0.0201 -0.0201 -0.0201 -0.0201 -0.0201
 -0.0161 -0.0164 -0.0164 -0.0167 -0.0167 -0.0172 -0.0172 -0.0178
 -0.0178 -0.0184 -0.0184 -0.0190 -0.0190 -0.0197 -0.0197 -0.0201
 -0.0201 -0.0201 -0.0201 -0.0201 -0.0167 -0.0171 -0.0171 -0.0177
 -0.0177 -0.0183 -0.0183 -0.0189 -0.0189 -0.0196 -0.0196 -0.0201
 -0.0201 -0.0201 -0.0201 -0.0201 -0.0201 -0.0201 -0.0201 -0.0201
 -0.0167 -0.0171 -0.0171 -0.0177 -0.0177 -0.0183 -0.0183 -0.0189
 -0.0189 -0.0196 -0.0196 -0.0201 -0.0201 -0.0201 -0.0201 -0.0201
 -0.0201 -0.0201 -0.0201 -0.0201 -0.0175 -0.0181 -0.0181 -0.0188
 -0.0188 -0.0194 -0.0194 -0.0200 -0.0200 -0.0201 -0.0201 -0.0201
 -0.0201 -0.0201 -0.0201 -0.0201 -0.0201 -0.0201 -0.0201 -0.0201
 -0.0175 -0.0181 -0.0181 -0.0188 -0.0188 -0.0194 -0.0194 -0.0200
 -0.0200 -0.0201 -0.0201 -0.0201 -0.0201 -0.0201 -0.0201 -0.0201
 -0.0201 -0.0201 -0.0201 -0.0201 -0.0186 -0.0192 -0.0192 -0.0198
 -0.0198 -0.0201 -0.0201 -0.0201 -0.0201 -0.0201 -0.0201 -0.0201
 -0.0201 -0.0201 -0.0201 -0.0201 -0.0201 -0.0201 -0.0201 -0.0201
 -0.0186 -0.0192 -0.0192 -0.0198 -0.0198 -0.0201 -0.0201 -0.0201
 -0.0201 -0.0201 -0.0201 -0.0201 -0.0201 -0.0201 -0.0201 -0.0201
 -0.0201 -0.0201 -0.0201 -0.0201 -0.0195 -0.0201 -0.0201 -0.0201
 -0.0201 -0.0201 -0.0201 -0.0201 -0.0201 -0.0201 -0.0201 -0.0201
 -0.0201 -0.0201 -0.0201 -0.0201 -0.0201 -0.0201 -0.0201 -0.0201
 -0.0145 -0.0145 -0.0145 -0.0145 -0.0145 -0.0145 -0.0145 -0.0145
 -0.0145 -0.0145 -0.0145 -0.0145 -0.0145 -0.0145 -0.0145 -0.0147
 -0.0147 -0.0149 -0.0149 -0.0150 -0.0145 -0.0145 -0.0145 -0.0145
 -0.0145 -0.0145 -0.0145 -0.0145 -0.0145 -0.0145 -0.0145 -0.0147
 -0.0147 -0.0149 -0.0149 -0.0150 -0.0150 -0.0150 -0.0150 -0.0150
 -0.0145 -0.0145 -0.0145 -0.0145 -0.0145 -0.0145 -0.0145 -0.0145
 -0.0145 -0.0145 -0.0145 -0.0147 -0.0147 -0.0149 -0.0149 -0.0150
 -0.0150 -0.0150 -0.0150 -0.0150 -0.0145 -0.0145 -0.0145 -0.0145
 -0.0145 -0.0145 -0.0145 -0.0147 -0.0147 -0.0149 -0.0149 -0.0150
 -0.0150 -0.0150 -0.0150 -0.0150 -0.0150 -0.0148 -0.0148 -0.0145
 -0.0145 -0.0145 -0.0145 -0.0145 -0.0145 -0.0145 -0.0145 -0.0147
 -0.0147 -0.0149 -0.0149 -0.0150 -0.0150 -0.0150 -0.0150 -0.0150
 -0.0150 -0.0148 -0.0148 -0.0145 -0.0145 -0.0145 -0.0145 -0.0147
 -0.0147 -0.0149 -0.0149 -0.0150 -0.0150 -0.0150 -0.0150 -0.0149
 -0.0149 -0.0147 -0.0147 -0.0145 -0.0145 -0.0145 -0.0145 -0.0145
 -0.0145 -0.0145 -0.0145 -0.0147 -0.0147 -0.0149 -0.0149 -0.0150
 -0.0150 -0.0150 -0.0150 -0.0149 -0.0149 -0.0147 -0.0147 -0.0145
 -0.0145 -0.0145 -0.0145 -0.0145 -0.0148 -0.0149 -0.0149 -0.0150
 -0.0150 -0.0150 -0.0150 -0.0149 -0.0149 -0.0147 -0.0147 -0.0145
 -0.0145 -0.0145 -0.0145 -0.0145 -0.0145 -0.0145 -0.0145 -0.0145