-- Copyright Statoil ASA 2010
-- License: CC-BY-SA, www.creativecommons.org


SPECGRID
2 2 2 1 F /


COORD
 0.000 0.000 0.000 0.000 0.000 1.000 
 0.500 0.000 0.000 0.500 0.000 1.000 
 1.000 0.000 0.000 1.000 0.000 1.000 
 0.000 0.500 0.000 0.000 0.500 1.000 
 0.500 0.500 0.000 0.500 0.500 1.000 
 1.000 0.500 0.000 1.000 0.500 1.000 
 0.000 1.000 0.000 0.000 1.000 1.000 
 0.500 1.000 0.000 0.500 1.000 1.000 
 1.000 1.000 0.000 1.000 1.000 1.000 

  /


ZCORN
0.000 0.000 0.000 0.000 0.000 0.000 
0.000 0.000 0.000 0.000 0.000 0.000 
0.000 0.000 0.000 0.000 0.500 0.500 
0.500 0.500 0.500 0.500 0.500 0.500 
0.500 0.500 0.500 0.500 0.500 0.500 
0.500 0.500 0.500 0.500 0.500 0.500 
0.500 0.500 0.500 0.500 0.500 0.500 
0.500 0.500 0.500 0.500 0.500 0.500 
1.000 1.000 1.000 1.000 1.000 1.000 
1.000 1.000 1.000 1.000 1.000 1.000 
1.000 1.000 1.000 1.000 
  /

ACTNUM
   1  1  1  1  1  1  1  1
/

PERMX
  19   2  25  20  5  4  2  7
/

PORO
  0.24 0.14 0.28 0.24 0.1 0.15 0.17 0.09
/

SATNUM
  1  2  1  1  2  2  2  2
/
