SPECGRID
9 10 80 1 F
/

COORD
  0  0  0  0  0  0.0564
  0.01  0  0  0.01  0  0.0564
  0.02  0  0  0.02  0  0.0564
  0.03  0  0  0.03  0  0.0564
  0.04  0  0  0.04  0  0.0564
  0.05  0  0  0.05  0  0.0564
  0.06  0  0  0.06  0  0.0564
  0.07  0  0  0.07  0  0.0564
  0.08  0  0  0.08  0  0.0564
  0.09  0  0  0.09  0  0.0564
  0  0.01  0  0  0.01  0.0564
  0.01  0.01  0  0.01  0.01  0.0564
  0.02  0.01  0  0.02  0.01  0.0564
  0.03  0.01  0  0.03  0.01  0.0564
  0.04  0.01  0  0.04  0.01  0.0564
  0.05  0.01  0  0.05  0.01  0.0564
  0.06  0.01  0  0.06  0.01  0.0564
  0.07  0.01  0  0.07  0.01  0.0564
  0.08  0.01  0  0.08  0.01  0.0564
  0.09  0.01  0  0.09  0.01  0.0564
  0  0.02  0  0  0.02  0.0564
  0.01  0.02  0  0.01  0.02  0.0564
  0.02  0.02  0  0.02  0.02  0.0564
  0.03  0.02  0  0.03  0.02  0.0564
  0.04  0.02  0  0.04  0.02  0.0564
  0.05  0.02  0  0.05  0.02  0.0564
  0.06  0.02  0  0.06  0.02  0.0564
  0.07  0.02  0  0.07  0.02  0.0564
  0.08  0.02  0  0.08  0.02  0.0564
  0.09  0.02  0  0.09  0.02  0.0564
  0  0.03  0  0  0.03  0.0564
  0.01  0.03  0  0.01  0.03  0.0564
  0.02  0.03  0  0.02  0.03  0.0564
  0.03  0.03  0  0.03  0.03  0.0564
  0.04  0.03  0  0.04  0.03  0.0564
  0.05  0.03  0  0.05  0.03  0.0564
  0.06  0.03  0  0.06  0.03  0.0564
  0.07  0.03  0  0.07  0.03  0.0564
  0.08  0.03  0  0.08  0.03  0.0564
  0.09  0.03  0  0.09  0.03  0.0564
  0  0.04  0  0  0.04  0.0564
  0.01  0.04  0  0.01  0.04  0.0564
  0.02  0.04  0  0.02  0.04  0.0564
  0.03  0.04  0  0.03  0.04  0.0564
  0.04  0.04  0  0.04  0.04  0.0564
  0.05  0.04  0  0.05  0.04  0.0564
  0.06  0.04  0  0.06  0.04  0.0564
  0.07  0.04  0  0.07  0.04  0.0564
  0.08  0.04  0  0.08  0.04  0.0564
  0.09  0.04  0  0.09  0.04  0.0564
  0  0.05  0  0  0.05  0.0564
  0.01  0.05  0  0.01  0.05  0.0564
  0.02  0.05  0  0.02  0.05  0.0564
  0.03  0.05  0  0.03  0.05  0.0564
  0.04  0.05  0  0.04  0.05  0.0564
  0.05  0.05  0  0.05  0.05  0.0564
  0.06  0.05  0  0.06  0.05  0.0564
  0.07  0.05  0  0.07  0.05  0.0564
  0.08  0.05  0  0.08  0.05  0.0564
  0.09  0.05  0  0.09  0.05  0.0564
  0  0.06  0  0  0.06  0.0564
  0.01  0.06  0  0.01  0.06  0.0564
  0.02  0.06  0  0.02  0.06  0.0564
  0.03  0.06  0  0.03  0.06  0.0564
  0.04  0.06  0  0.04  0.06  0.0564
  0.05  0.06  0  0.05  0.06  0.0564
  0.06  0.06  0  0.06  0.06  0.0564
  0.07  0.06  0  0.07  0.06  0.0564
  0.08  0.06  0  0.08  0.06  0.0564
  0.09  0.06  0  0.09  0.06  0.0564
  0  0.07  0  0  0.07  0.0564
  0.01  0.07  0  0.01  0.07  0.0564
  0.02  0.07  0  0.02  0.07  0.0564
  0.03  0.07  0  0.03  0.07  0.0564
  0.04  0.07  0  0.04  0.07  0.0564
  0.05  0.07  0  0.05  0.07  0.0564
  0.06  0.07  0  0.06  0.07  0.0564
  0.07  0.07  0  0.07  0.07  0.0564
  0.08  0.07  0  0.08  0.07  0.0564
  0.09  0.07  0  0.09  0.07  0.0564
  0  0.08  0  0  0.08  0.0564
  0.01  0.08  0  0.01  0.08  0.0564
  0.02  0.08  0  0.02  0.08  0.0564
  0.03  0.08  0  0.03  0.08  0.0564
  0.04  0.08  0  0.04  0.08  0.0564
  0.05  0.08  0  0.05  0.08  0.0564
  0.06  0.08  0  0.06  0.08  0.0564
  0.07  0.08  0  0.07  0.08  0.0564
  0.08  0.08  0  0.08  0.08  0.0564
  0.09  0.08  0  0.09  0.08  0.0564
  0  0.09  0  0  0.09  0.0564
  0.01  0.09  0  0.01  0.09  0.0564
  0.02  0.09  0  0.02  0.09  0.0564
  0.03  0.09  0  0.03  0.09  0.0564
  0.04  0.09  0  0.04  0.09  0.0564
  0.05  0.09  0  0.05  0.09  0.0564
  0.06  0.09  0  0.06  0.09  0.0564
  0.07  0.09  0  0.07  0.09  0.0564
  0.08  0.09  0  0.08  0.09  0.0564
  0.09  0.09  0  0.09  0.09  0.0564
  0  0.1  0  0  0.1  0.0564
  0.01  0.1  0  0.01  0.1  0.0564
  0.02  0.1  0  0.02  0.1  0.0564
  0.03  0.1  0  0.03  0.1  0.0564
  0.04  0.1  0  0.04  0.1  0.0564
  0.05  0.1  0  0.05  0.1  0.0564
  0.06  0.1  0  0.06  0.1  0.0564
  0.07  0.1  0  0.07  0.1  0.0564
  0.08  0.1  0  0.08  0.1  0.0564
  0.09  0.1  0  0.09  0.1  0.0564
/

ZCORN
  0  0  0  0  0  0  0  0
  0  0  0  0  0  0  0  0
  0  0  0  0  0  0  0  0
  0  0  0  0  0  0  0  0
  0  0  0  0  0  0  0  0
  0  0  0  0  0  0  0  0
  0  0  0  0  0  0  0  0
  0  0  0  0  0  0  0  0
  0  0  0  0  0  0  0  0
  0  0  0  0  0  0  0  0
  0  0  0  0  0  0  0  0
  0  0  0  0  0  0  0  0
  0  0  0  0  0  0  0  0
  0  0  0  0  0  0  0  0
  0  0  0  0  0  0  0  0
  0  0  0  0  0  0  0  0
  0  0  0  0  0  0  0  0
  0  0  0  0  0  0  0  0
  0  0  0  0  0  0  0  0
  0  0  0  0  0  0  0  0
  0  0  0  0  0  0  0  0
  0  0  0  0  0  0  0  0
  0  0  0  0  0  0  0  0
  0  0  0  0  0  0  0  0
  0  0  0  0  0  0  0  0
  0  0  0  0  0  0  0  0
  0  0  0  0  0  0  0  0
  0  0  0  0  0  0  0  0
  0  0  0  0  0  0  0  0
  0  0  0  0  0  0  0  0
  0  0  0  0  0  0  0  0
  0  0  0  0  0  0  0  0
  0  0  0  0  0  0  0  0
  0  0  0  0  0  0  0  0
  0  0  0  0  0  0  0  0
  0  0  0  0  0  0  0  0
  0  0  0  0  0  0  0  0
  0  0  0  0  0  0  0  0
  0  0  0  0  0  0  0  0
  0  0  0  0  0  0  0  0
  0  0  0  0  0  0  0  0
  0  0  0  0  0  0  0  0
  0  0  0  0  0  0  0  0
  0  0  0  0  0  0  0  0
  0  0  0  0  0  0  0  0
  0  0.0007  0.0007  0.0006  0.0006  0  0  0
  0  0  0  0  0  0  0  0
  0  0  0.0007  0.0018  0.0018  0.0017  0.0017  0.0006
  0.0006  0  0  0  0  0  0  0
  0  0  0  0  0.0007  0.0018  0.0018  0.0017
  0.0017  0.0006  0.0006  0  0  0  0  0
  0  0  0  0  0  0  0.0008  0.0017
  0.0017  0.0014  0.0014  0.0006  0.0006  0  0  0
  0  0  0  0  0  0  0  0
  0.0008  0.0017  0.0017  0.0014  0.0014  0.0006  0.0006  0
  0  0  0  0  0  0  0  0
  0  0  0.0001  0.0009  0.0009  0.0005  0.0005  0
  0  0  0  0  0  0  0  0
  0  0  0  0  0.0001  0.0009  0.0009  0.0005
  0.0005  0  0  0  0  0  0  0
  0  0  0  0  0  0  0  0
  0  0  0  0  0  0  0  0
  0  0  0  0  0  0  0  0
  0  0  0  0  0  0  0  0
  0  0  0  0  0  0  0  0
  0  0  0  0  0  0  0  0
  0  0  0  0  0  0  0  0
  0  0  0  0  0  0  0  0
  0  0  0  0  0  0  0  0
  0  0  0  0  0  0  0  0
  0  0  0  0  0  0  0  0
  0  0  0  0  0  0  0  0
  0  0  0  0  0  0  0  0
  0  0  0  0  0  0  0  0
  0  0  0  0  0  0  0  0
  0  0  0  0  0  0  0  0
  0  0  0  0  0  0  0  0
  0  0  0  0  0  0  0  0
  0  0  0  0  0  0  0  0
  0  0  0  0  0  0  0  0
  0  0  0  0  0  0  0  0
  0  0  0  0  0  0  0  0
  0  0  0  0  0  0  0  0
  0  0  0  0  0  0  0  0
  0  0  0  0  0  0  0  0
  0  0  0  0  0  0  0  0
  0  0  0  0  0  0  0  0
  0  0  0  0  0  0  0  0.0009
  0.0009  0.0012  0.0012  0.0004  0.0004  0  0  0
  0  0  0  0  0  0  0  0
  0  0.0007  0.0007  0.0006  0.0006  0  0  0
  0  0  0  0  0  0  0  0
  0  0  0.0007  0.0018  0.0018  0.0017  0.0017  0.0006
  0.0006  0  0  0  0  0  0  0
  0  0  0  0  0.0007  0.0018  0.0018  0.0017
  0.0017  0.0006  0.0006  0  0  0  0  0
  0  0  0  0  0  0  0.0008  0.0017
  0.0017  0.0014  0.0014  0.0006  0.0006  0  0  0
  0  0  0  0  0  0  0  0
  0.0008  0.0017  0.0017  0.0014  0.0014  0.0006  0.0006  0
  0  0  0  0  0  0  0  0
  0  0  0.0001  0.0009  0.0009  0.0005  0.0005  0
  0  0  0  0  0  0  0  0
  0  0  0  0  0.0001  0.0009  0.0009  0.0005
  0.0005  0  0  0  0  0  0  0
  0  0  0  0  0  0  0  0
  0  0  0  0  0  0  0  0
  0  0  0  0  0  0  0  0
  0  0  0  0  0  0  0  0
  0  0  0  0  0  0  0  0
  0  0  0  0  0  0  0  0
  0  0  0  0  0  0  0  0
  0  0  0  0  0  0  0  0
  0  0  0  0  0  0  0  0
  0  0  0  0  0  0  0  0
  0  0  0  0  0  0  0  0
  0  0  0  0  0  0  0  0
  0  0  0  0  0  0  0  0
  0  0  0  0  0  0  0  0
  0  0  0  0  0  0  0  0
  0  0  0  0  0  0  0  0
  0  0  0  0  0  0  0  0
  0  0  0  0  0  0  0  0
  0  0  0  0  0  0  0  0
  0  0  0  0  0  0  0  0
  0  0  0  0  0  0  0  0
  0  0  0  0  0  0  0  0
  0  0  0  0  0  0  0  0
  0  0  0  0  0  0  0  0
  0  0  0  0  0  0  0  0
  0  0  0  0  0  0  0  0
  0  0  0  0  0  0  0  0
  0  0  0  0  0  0  0  0.0009
  0.0009  0.0012  0.0012  0.0004  0.0004  0  0  0
  0  0  0  0  0  0  0  0
  0.0015  0.0025  0.0025  0.0025  0.0025  0.0018  0.0018  0
  0  0  0  0  0  0  0  0
  0  0.0003  0.0025  0.0038  0.0038  0.0036  0.0036  0.0025
  0.0025  0.0009  0.0009  0  0  0  0  0
  0  0  0  0.0009  0.0025  0.0038  0.0038  0.0036
  0.0036  0.0025  0.0025  0.0009  0.0009  0  0  0
  0  0  0  0  0  0.0009  0.0027  0.0037
  0.0037  0.0034  0.0034  0.0024  0.0024  0.0009  0.0009  0
  0  0  0  0  0  0  0  0.0008
  0.0027  0.0037  0.0037  0.0034  0.0034  0.0024  0.0024  0.0009
  0.0009  0  0  0  0  0  0  0
  0  0.0008  0.0019  0.0028  0.0028  0.0024  0.0024  0.0017
  0.0017  0.0001  0.0001  0  0  0  0  0
  0  0  0  0.0001  0.0019  0.0028  0.0028  0.0024
  0.0024  0.0017  0.0017  0.0001  0.0001  0  0  0
  0  0  0  0  0  0.0001  0.0002  0.0013
  0.0013  0.0013  0.0013  0.0002  0.0002  0  0  0
  0  0  0  0  0  0  0  0
  0.0002  0.0013  0.0013  0.0013  0.0013  0.0002  0.0002  0
  0  0  0  0  0  0  0  0
  0  0  0  0  0  0  0  0
  0  0  0  0  0  0  0  0
  0  0  0  0  0  0  0  0
  0  0  0  0  0  0  0  0
  0  0  0  0  0  0  0  0
  0  0  0  0  0  0  0  0
  0  0  0  0  0  0  0  0
  0  0  0  0  0  0  0  0
  0  0  0  0  0  0  0  0
  0  0  0  0  0  0  0  0
  0  0  0  0  0  0  0  0
  0  0  0  0  0  0  0  0
  0  0  0  0  0  0  0  0
  0  0  0  0  0  0  0  0
  0  0  0  0  0  0  0  0
  0  0  0  0  0  0  0  0
  0  0  0  0  0  0  0  0
  0  0  0  0  0  0  0  0
  0  0  0.0001  0.0012  0.0012  0.0014  0.0014  0.0002
  0.0002  0  0  0  0  0  0  0
  0  0  0  0  0.0001  0.0012  0.0012  0.0014
  0.0014  0.0002  0.0002  0  0  0  0  0
  0  0  0  0  0  0  0.0015  0.0028
  0.0028  0.0031  0.0031  0.0022  0.0022  0.0007  0.0007  0
  0  0  0  0  0  0  0  0.0003
  0.0015  0.0025  0.0025  0.0025  0.0025  0.0018  0.0018  0
  0  0  0  0  0  0  0  0
  0  0.0003  0.0025  0.0038  0.0038  0.0036  0.0036  0.0025
  0.0025  0.0009  0.0009  0  0  0  0  0
  0  0  0  0.0009  0.0025  0.0038  0.0038  0.0036
  0.0036  0.0025  0.0025  0.0009  0.0009  0  0  0
  0  0  0  0  0  0.0009  0.0027  0.0037
  0.0037  0.0034  0.0034  0.0024  0.0024  0.0009  0.0009  0
  0  0  0  0  0  0  0  0.0008
  0.0027  0.0037  0.0037  0.0034  0.0034  0.0024  0.0024  0.0009
  0.0009  0  0  0  0  0  0  0
  0  0.0008  0.0019  0.0028  0.0028  0.0024  0.0024  0.0017
  0.0017  0.0001  0.0001  0  0  0  0  0
  0  0  0  0.0001  0.0019  0.0028  0.0028  0.0024
  0.0024  0.0017  0.0017  0.0001  0.0001  0  0  0
  0  0  0  0  0  0.0001  0.0002  0.0013
  0.0013  0.0013  0.0013  0.0002  0.0002  0  0  0
  0  0  0  0  0  0  0  0
  0.0002  0.0013  0.0013  0.0013  0.0013  0.0002  0.0002  0
  0  0  0  0  0  0  0  0
  0  0  0  0  0  0  0  0
  0  0  0  0  0  0  0  0
  0  0  0  0  0  0  0  0
  0  0  0  0  0  0  0  0
  0  0  0  0  0  0  0  0
  0  0  0  0  0  0  0  0
  0  0  0  0  0  0  0  0
  0  0  0  0  0  0  0  0
  0  0  0  0  0  0  0  0
  0  0  0  0  0  0  0  0
  0  0  0  0  0  0  0  0
  0  0  0  0  0  0  0  0
  0  0  0  0  0  0  0  0
  0  0  0  0  0  0  0  0
  0  0  0  0  0  0  0  0
  0  0  0  0  0  0  0  0
  0  0  0  0  0  0  0  0
  0  0  0  0  0  0  0  0
  0  0  0.0001  0.0012  0.0012  0.0014  0.0014  0.0002
  0.0002  0  0  0  0  0  0  0
  0  0  0  0  0.0001  0.0012  0.0012  0.0014
  0.0014  0.0002  0.0002  0  0  0  0  0
  0  0  0  0  0  0  0.0015  0.0028
  0.0028  0.0031  0.0031  0.0022  0.0022  0.0007  0.0007  0
  0  0  0  0  0  0  0  0.0003
  0.0033  0.0044  0.0044  0.0043  0.0043  0.0036  0.0036  0.0017
  0.0017  0  0  0  0  0  0  0
  0  0.0019  0.0044  0.0058  0.0058  0.0056  0.0056  0.0043
  0.0043  0.0026  0.0026  0.0007  0.0007  0  0  0
  0  0.0008  0.0008  0.0027  0.0044  0.0058  0.0058  0.0056
  0.0056  0.0043  0.0043  0.0026  0.0026  0.0007  0.0007  0
  0  0  0  0.0008  0.0008  0.0027  0.0046  0.0057
  0.0057  0.0053  0.0053  0.0043  0.0043  0.0027  0.0027  0.0008
  0.0008  0  0  0  0  0.0009  0.0009  0.0025
  0.0046  0.0057  0.0057  0.0053  0.0053  0.0043  0.0043  0.0027
  0.0027  0.0008  0.0008  0  0  0  0  0.0009
  0.0009  0.0025  0.0037  0.0047  0.0047  0.0042  0.0042  0.0035
  0.0035  0.0018  0.0018  0  0  0  0  0
  0  0  0  0.0018  0.0037  0.0047  0.0047  0.0042
  0.0042  0.0035  0.0035  0.0018  0.0018  0  0  0
  0  0  0  0  0  0.0018  0.0018  0.0031
  0.0031  0.003  0.003  0.0018  0.0018  0.0001  0.0001  0
  0  0  0  0  0  0  0  0.0003
  0.0018  0.0031  0.0031  0.003  0.003  0.0018  0.0018  0.0001
  0.0001  0  0  0  0  0  0  0
  0  0.0003  0.0001  0.0011  0.0011  0.0011  0.0011  0.0001
  0.0001  0  0  0  0  0  0  0
  0  0  0  0  0.0001  0.0011  0.0011  0.0011
  0.0011  0.0001  0.0001  0  0  0  0  0
  0  0  0  0  0  0  0  0.0002
  0.0002  0.0002  0.0002  0  0  0  0  0
  0  0  0  0  0  0  0  0
  0  0.0002  0.0002  0.0002  0.0002  0  0  0
  0  0  0  0  0  0  0  0
  0  0  0  0.0004  0.0004  0  0  0
  0  0  0  0  0  0  0  0
  0  0  0  0  0  0.0004  0.0004  0
  0  0  0  0  0  0  0  0
  0  0  0  0  0  0  0.0002  0.0014
  0.0014  0.0012  0.0012  0  0  0  0  0
  0  0  0  0  0  0  0  0
  0.0002  0.0014  0.0014  0.0012  0.0012  0  0  0
  0  0  0  0  0  0  0  0
  0  0  0.0018  0.003  0.003  0.0032  0.0032  0.0018
  0.0018  0.0004  0.0004  0  0  0  0  0
  0  0  0  0  0.0018  0.003  0.003  0.0032
  0.0032  0.0018  0.0018  0.0004  0.0004  0  0  0
  0  0  0  0  0  0  0.0032  0.0047
  0.0047  0.005  0.005  0.0041  0.0041  0.0024  0.0024  0.0004
  0.0004  0  0  0  0  0  0  0.002
  0.0033  0.0044  0.0044  0.0043  0.0043  0.0036  0.0036  0.0017
  0.0017  0  0  0  0  0  0  0
  0  0.0019  0.0044  0.0058  0.0058  0.0056  0.0056  0.0043
  0.0043  0.0026  0.0026  0.0007  0.0007  0  0  0
  0  0.0008  0.0008  0.0027  0.0044  0.0058  0.0058  0.0056
  0.0056  0.0043  0.0043  0.0026  0.0026  0.0007  0.0007  0
  0  0  0  0.0008  0.0008  0.0027  0.0046  0.0057
  0.0057  0.0053  0.0053  0.0043  0.0043  0.0027  0.0027  0.0008
  0.0008  0  0  0  0  0.0009  0.0009  0.0025
  0.0046  0.0057  0.0057  0.0053  0.0053  0.0043  0.0043  0.0027
  0.0027  0.0008  0.0008  0  0  0  0  0.0009
  0.0009  0.0025  0.0037  0.0047  0.0047  0.0042  0.0042  0.0035
  0.0035  0.0018  0.0018  0  0  0  0  0
  0  0  0  0.0018  0.0037  0.0047  0.0047  0.0042
  0.0042  0.0035  0.0035  0.0018  0.0018  0  0  0
  0  0  0  0  0  0.0018  0.0018  0.0031
  0.0031  0.003  0.003  0.0018  0.0018  0.0001  0.0001  0
  0  0  0  0  0  0  0  0.0003
  0.0018  0.0031  0.0031  0.003  0.003  0.0018  0.0018  0.0001
  0.0001  0  0  0  0  0  0  0
  0  0.0003  0.0001  0.0011  0.0011  0.0011  0.0011  0.0001
  0.0001  0  0  0  0  0  0  0
  0  0  0  0  0.0001  0.0011  0.0011  0.0011
  0.0011  0.0001  0.0001  0  0  0  0  0
  0  0  0  0  0  0  0  0.0002
  0.0002  0.0002  0.0002  0  0  0  0  0
  0  0  0  0  0  0  0  0
  0  0.0002  0.0002  0.0002  0.0002  0  0  0
  0  0  0  0  0  0  0  0
  0  0  0  0.0004  0.0004  0  0  0
  0  0  0  0  0  0  0  0
  0  0  0  0  0  0.0004  0.0004  0
  0  0  0  0  0  0  0  0
  0  0  0  0  0  0  0.0002  0.0014
  0.0014  0.0012  0.0012  0  0  0  0  0
  0  0  0  0  0  0  0  0
  0.0002  0.0014  0.0014  0.0012  0.0012  0  0  0
  0  0  0  0  0  0  0  0
  0  0  0.0018  0.003  0.003  0.0032  0.0032  0.0018
  0.0018  0.0004  0.0004  0  0  0  0  0
  0  0  0  0  0.0018  0.003  0.003  0.0032
  0.0032  0.0018  0.0018  0.0004  0.0004  0  0  0
  0  0  0  0  0  0  0.0032  0.0047
  0.0047  0.005  0.005  0.0041  0.0041  0.0024  0.0024  0.0004
  0.0004  0  0  0  0  0  0  0.002
  0.0051  0.0063  0.0063  0.0062  0.0062  0.0054  0.0054  0.0033
  0.0033  0.0012  0.0012  0  0  0.0002  0.0002  0.0015
  0.0015  0.0036  0.0063  0.0078  0.0078  0.0075  0.0075  0.0062
  0.0062  0.0043  0.0043  0.0023  0.0023  0.0011  0.0011  0.0013
  0.0013  0.0024  0.0024  0.0044  0.0063  0.0078  0.0078  0.0075
  0.0075  0.0062  0.0062  0.0043  0.0043  0.0023  0.0023  0.0011
  0.0011  0.0013  0.0013  0.0024  0.0024  0.0044  0.0065  0.0077
  0.0077  0.0073  0.0073  0.0061  0.0061  0.0044  0.0044  0.0023
  0.0023  0.001  0.001  0.0013  0.0013  0.0025  0.0025  0.0042
  0.0065  0.0077  0.0077  0.0073  0.0073  0.0061  0.0061  0.0044
  0.0044  0.0023  0.0023  0.001  0.001  0.0013  0.0013  0.0025
  0.0025  0.0042  0.0055  0.0066  0.0066  0.0061  0.0061  0.0053
  0.0053  0.0034  0.0034  0.0013  0.0013  0  0  0
  0  0.0014  0.0014  0.0034  0.0055  0.0066  0.0066  0.0061
  0.0061  0.0053  0.0053  0.0034  0.0034  0.0013  0.0013  0
  0  0  0  0.0014  0.0014  0.0034  0.0035  0.0049
  0.0049  0.0048  0.0048  0.0035  0.0035  0.0017  0.0017  0
  0  0  0  0  0  0  0  0.0018
  0.0035  0.0049  0.0049  0.0048  0.0048  0.0035  0.0035  0.0017
  0.0017  0  0  0  0  0  0  0
  0  0.0018  0.0016  0.0027  0.0027  0.0027  0.0027  0.0016
  0.0016  0  0  0  0  0  0  0
  0  0  0  0  0.0016  0.0027  0.0027  0.0027
  0.0027  0.0016  0.0016  0  0  0  0  0
  0  0  0  0  0  0  0.0004  0.0017
  0.0017  0.0017  0.0017  0.0004  0.0004  0  0  0
  0  0  0  0  0  0  0  0
  0.0004  0.0017  0.0017  0.0017  0.0017  0.0004  0.0004  0
  0  0  0  0  0  0  0  0
  0  0  0.0008  0.0019  0.0019  0.0015  0.0015  0.0003
  0.0003  0  0  0  0  0  0  0
  0  0  0  0  0.0008  0.0019  0.0019  0.0015
  0.0015  0.0003  0.0003  0  0  0  0  0
  0  0  0  0  0  0  0.0017  0.003
  0.003  0.0028  0.0028  0.0016  0.0016  0  0  0
  0  0  0  0  0  0  0  0
  0.0017  0.003  0.003  0.0028  0.0028  0.0016  0.0016  0
  0  0  0  0  0  0  0  0
  0  0  0.0034  0.0047  0.0047  0.0049  0.0049  0.0035
  0.0035  0.0019  0.0019  0  0  0  0  0
  0  0  0  0.0015  0.0034  0.0047  0.0047  0.0049
  0.0049  0.0035  0.0035  0.0019  0.0019  0  0  0
  0  0  0  0  0  0.0015  0.005  0.0066
  0.0066  0.0069  0.0069  0.0059  0.0059  0.0041  0.0041  0.0019
  0.0019  0.0005  0.0005  0.0001  0.0001  0.0015  0.0015  0.0036
  0.0051  0.0063  0.0063  0.0062  0.0062  0.0054  0.0054  0.0033
  0.0033  0.0012  0.0012  0  0  0.0002  0.0002  0.0015
  0.0015  0.0036  0.0063  0.0078  0.0078  0.0075  0.0075  0.0062
  0.0062  0.0043  0.0043  0.0023  0.0023  0.0011  0.0011  0.0013
  0.0013  0.0024  0.0024  0.0044  0.0063  0.0078  0.0078  0.0075
  0.0075  0.0062  0.0062  0.0043  0.0043  0.0023  0.0023  0.0011
  0.0011  0.0013  0.0013  0.0024  0.0024  0.0044  0.0065  0.0077
  0.0077  0.0073  0.0073  0.0061  0.0061  0.0044  0.0044  0.0023
  0.0023  0.001  0.001  0.0013  0.0013  0.0025  0.0025  0.0042
  0.0065  0.0077  0.0077  0.0073  0.0073  0.0061  0.0061  0.0044
  0.0044  0.0023  0.0023  0.001  0.001  0.0013  0.0013  0.0025
  0.0025  0.0042  0.0055  0.0066  0.0066  0.0061  0.0061  0.0053
  0.0053  0.0034  0.0034  0.0013  0.0013  0  0  0
  0  0.0014  0.0014  0.0034  0.0055  0.0066  0.0066  0.0061
  0.0061  0.0053  0.0053  0.0034  0.0034  0.0013  0.0013  0
  0  0  0  0.0014  0.0014  0.0034  0.0035  0.0049
  0.0049  0.0048  0.0048  0.0035  0.0035  0.0017  0.0017  0
  0  0  0  0  0  0  0  0.0018
  0.0035  0.0049  0.0049  0.0048  0.0048  0.0035  0.0035  0.0017
  0.0017  0  0  0  0  0  0  0
  0  0.0018  0.0016  0.0027  0.0027  0.0027  0.0027  0.0016
  0.0016  0  0  0  0  0  0  0
  0  0  0  0  0.0016  0.0027  0.0027  0.0027
  0.0027  0.0016  0.0016  0  0  0  0  0
  0  0  0  0  0  0  0.0004  0.0017
  0.0017  0.0017  0.0017  0.0004  0.0004  0  0  0
  0  0  0  0  0  0  0  0
  0.0004  0.0017  0.0017  0.0017  0.0017  0.0004  0.0004  0
  0  0  0  0  0  0  0  0
  0  0  0.0008  0.0019  0.0019  0.0015  0.0015  0.0003
  0.0003  0  0  0  0  0  0  0
  0  0  0  0  0.0008  0.0019  0.0019  0.0015
  0.0015  0.0003  0.0003  0  0  0  0  0
  0  0  0  0  0  0  0.0017  0.003
  0.003  0.0028  0.0028  0.0016  0.0016  0  0  0
  0  0  0  0  0  0  0  0
  0.0017  0.003  0.003  0.0028  0.0028  0.0016  0.0016  0
  0  0  0  0  0  0  0  0
  0  0  0.0034  0.0047  0.0047  0.0049  0.0049  0.0035
  0.0035  0.0019  0.0019  0  0  0  0  0
  0  0  0  0.0015  0.0034  0.0047  0.0047  0.0049
  0.0049  0.0035  0.0035  0.0019  0.0019  0  0  0
  0  0  0  0  0  0.0015  0.005  0.0066
  0.0066  0.0069  0.0069  0.0059  0.0059  0.0041  0.0041  0.0019
  0.0019  0.0005  0.0005  0.0001  0.0001  0.0015  0.0015  0.0036
  0.0068  0.0081  0.0081  0.0081  0.0081  0.0072  0.0072  0.005
  0.005  0.0027  0.0027  0.0011  0.0011  0.0016  0.0016  0.0031
  0.0031  0.0052  0.0081  0.0098  0.0098  0.0095  0.0095  0.008
  0.008  0.0061  0.0061  0.0038  0.0038  0.0025  0.0025  0.0028
  0.0028  0.004  0.004  0.0061  0.0081  0.0098  0.0098  0.0095
  0.0095  0.008  0.008  0.0061  0.0061  0.0038  0.0038  0.0025
  0.0025  0.0028  0.0028  0.004  0.004  0.0061  0.0083  0.0096
  0.0096  0.0092  0.0092  0.008  0.008  0.0061  0.0061  0.0039
  0.0039  0.0025  0.0025  0.0028  0.0028  0.004  0.004  0.0059
  0.0083  0.0096  0.0096  0.0092  0.0092  0.008  0.008  0.0061
  0.0061  0.0039  0.0039  0.0025  0.0025  0.0028  0.0028  0.004
  0.004  0.0059  0.0073  0.0085  0.0085  0.0079  0.0079  0.0071
  0.0071  0.0051  0.0051  0.0027  0.0027  0.0014  0.0014  0.0014
  0.0014  0.0029  0.0029  0.0051  0.0073  0.0085  0.0085  0.0079
  0.0079  0.0071  0.0071  0.0051  0.0051  0.0027  0.0027  0.0014
  0.0014  0.0014  0.0014  0.0029  0.0029  0.0051  0.0051  0.0066
  0.0066  0.0065  0.0065  0.0051  0.0051  0.0032  0.0032  0.0008
  0.0008  0  0  0  0  0.0011  0.0011  0.0034
  0.0051  0.0066  0.0066  0.0065  0.0065  0.0051  0.0051  0.0032
  0.0032  0.0008  0.0008  0  0  0  0  0.0011
  0.0011  0.0034  0.0031  0.0043  0.0043  0.0043  0.0043  0.0031
  0.0031  0.0011  0.0011  0  0  0  0  0
  0  0  0  0.0013  0.0031  0.0043  0.0043  0.0043
  0.0043  0.0031  0.0031  0.0011  0.0011  0  0  0
  0  0  0  0  0  0.0013  0.0018  0.0032
  0.0032  0.0032  0.0032  0.0018  0.0018  0  0  0
  0  0  0  0  0  0  0  0.0002
  0.0018  0.0032  0.0032  0.0032  0.0032  0.0018  0.0018  0
  0  0  0  0  0  0  0  0
  0  0.0002  0.0023  0.0034  0.0034  0.003  0.003  0.0017
  0.0017  0  0  0  0  0  0  0
  0  0  0  0  0.0023  0.0034  0.0034  0.003
  0.003  0.0017  0.0017  0  0  0  0  0
  0  0  0  0  0  0  0.0032  0.0046
  0.0046  0.0044  0.0044  0.0031  0.0031  0.0011  0.0011  0
  0  0  0  0  0  0  0  0.0007
  0.0032  0.0046  0.0046  0.0044  0.0044  0.0031  0.0031  0.0011
  0.0011  0  0  0  0  0  0  0
  0  0.0007  0.005  0.0065  0.0065  0.0067  0.0067  0.0052
  0.0052  0.0035  0.0035  0.0008  0.0008  0  0  0
  0  0.0007  0.0007  0.003  0.005  0.0065  0.0065  0.0067
  0.0067  0.0052  0.0052  0.0035  0.0035  0.0008  0.0008  0
  0  0  0  0.0007  0.0007  0.003  0.0068  0.0085
  0.0085  0.0088  0.0088  0.0078  0.0078  0.0058  0.0058  0.0035
  0.0035  0.0019  0.0019  0.0015  0.0015  0.003  0.003  0.0053
  0.0068  0.0081  0.0081  0.0081  0.0081  0.0072  0.0072  0.005
  0.005  0.0027  0.0027  0.0011  0.0011  0.0016  0.0016  0.0031
  0.0031  0.0052  0.0081  0.0098  0.0098  0.0095  0.0095  0.008
  0.008  0.0061  0.0061  0.0038  0.0038  0.0025  0.0025  0.0028
  0.0028  0.004  0.004  0.0061  0.0081  0.0098  0.0098  0.0095
  0.0095  0.008  0.008  0.0061  0.0061  0.0038  0.0038  0.0025
  0.0025  0.0028  0.0028  0.004  0.004  0.0061  0.0083  0.0096
  0.0096  0.0092  0.0092  0.008  0.008  0.0061  0.0061  0.0039
  0.0039  0.0025  0.0025  0.0028  0.0028  0.004  0.004  0.0059
  0.0083  0.0096  0.0096  0.0092  0.0092  0.008  0.008  0.0061
  0.0061  0.0039  0.0039  0.0025  0.0025  0.0028  0.0028  0.004
  0.004  0.0059  0.0073  0.0085  0.0085  0.0079  0.0079  0.0071
  0.0071  0.0051  0.0051  0.0027  0.0027  0.0014  0.0014  0.0014
  0.0014  0.0029  0.0029  0.0051  0.0073  0.0085  0.0085  0.0079
  0.0079  0.0071  0.0071  0.0051  0.0051  0.0027  0.0027  0.0014
  0.0014  0.0014  0.0014  0.0029  0.0029  0.0051  0.0051  0.0066
  0.0066  0.0065  0.0065  0.0051  0.0051  0.0032  0.0032  0.0008
  0.0008  0  0  0  0  0.0011  0.0011  0.0034
  0.0051  0.0066  0.0066  0.0065  0.0065  0.0051  0.0051  0.0032
  0.0032  0.0008  0.0008  0  0  0  0  0.0011
  0.0011  0.0034  0.0031  0.0043  0.0043  0.0043  0.0043  0.0031
  0.0031  0.0011  0.0011  0  0  0  0  0
  0  0  0  0.0013  0.0031  0.0043  0.0043  0.0043
  0.0043  0.0031  0.0031  0.0011  0.0011  0  0  0
  0  0  0  0  0  0.0013  0.0018  0.0032
  0.0032  0.0032  0.0032  0.0018  0.0018  0  0  0
  0  0  0  0  0  0  0  0.0002
  0.0018  0.0032  0.0032  0.0032  0.0032  0.0018  0.0018  0
  0  0  0  0  0  0  0  0
  0  0.0002  0.0023  0.0034  0.0034  0.003  0.003  0.0017
  0.0017  0  0  0  0  0  0  0
  0  0  0  0  0.0023  0.0034  0.0034  0.003
  0.003  0.0017  0.0017  0  0  0  0  0
  0  0  0  0  0  0  0.0032  0.0046
  0.0046  0.0044  0.0044  0.0031  0.0031  0.0011  0.0011  0
  0  0  0  0  0  0  0  0.0007
  0.0032  0.0046  0.0046  0.0044  0.0044  0.0031  0.0031  0.0011
  0.0011  0  0  0  0  0  0  0
  0  0.0007  0.005  0.0065  0.0065  0.0067  0.0067  0.0052
  0.0052  0.0035  0.0035  0.0008  0.0008  0  0  0
  0  0.0007  0.0007  0.003  0.005  0.0065  0.0065  0.0067
  0.0067  0.0052  0.0052  0.0035  0.0035  0.0008  0.0008  0
  0  0  0  0.0007  0.0007  0.003  0.0068  0.0085
  0.0085  0.0088  0.0088  0.0078  0.0078  0.0058  0.0058  0.0035
  0.0035  0.0019  0.0019  0.0015  0.0015  0.003  0.003  0.0053
  0.0086  0.01  0.01  0.0099  0.0099  0.009  0.009  0.0066
  0.0066  0.0042  0.0042  0.0025  0.0025  0.003  0.003  0.0046
  0.0046  0.0069  0.01  0.0117  0.0117  0.0115  0.0115  0.0099
  0.0099  0.0078  0.0078  0.0054  0.0054  0.004  0.004  0.0043
  0.0043  0.0055  0.0055  0.0078  0.01  0.0117  0.0117  0.0115
  0.0115  0.0099  0.0099  0.0078  0.0078  0.0054  0.0054  0.004
  0.004  0.0043  0.0043  0.0055  0.0055  0.0078  0.0102  0.0116
  0.0116  0.0112  0.0112  0.0098  0.0098  0.0078  0.0078  0.0055
  0.0055  0.004  0.004  0.0043  0.0043  0.0056  0.0056  0.0076
  0.0102  0.0116  0.0116  0.0112  0.0112  0.0098  0.0098  0.0078
  0.0078  0.0055  0.0055  0.004  0.004  0.0043  0.0043  0.0056
  0.0056  0.0076  0.0091  0.0103  0.0103  0.0098  0.0098  0.0089
  0.0089  0.0067  0.0067  0.0042  0.0042  0.0027  0.0027  0.0028
  0.0028  0.0044  0.0044  0.0067  0.0091  0.0103  0.0103  0.0098
  0.0098  0.0089  0.0089  0.0067  0.0067  0.0042  0.0042  0.0027
  0.0027  0.0028  0.0028  0.0044  0.0044  0.0067  0.0068  0.0084
  0.0084  0.0083  0.0083  0.0068  0.0068  0.0047  0.0047  0.0021
  0.0021  0.0009  0.0009  0.0009  0.0009  0.0025  0.0025  0.0049
  0.0068  0.0084  0.0084  0.0083  0.0083  0.0068  0.0068  0.0047
  0.0047  0.0021  0.0021  0.0009  0.0009  0.0009  0.0009  0.0025
  0.0025  0.0049  0.0046  0.0059  0.0059  0.0059  0.0059  0.0046
  0.0046  0.0025  0.0025  0.0001  0.0001  0  0  0
  0  0.0005  0.0005  0.0027  0.0046  0.0059  0.0059  0.0059
  0.0059  0.0046  0.0046  0.0025  0.0025  0.0001  0.0001  0
  0  0  0  0.0005  0.0005  0.0027  0.0032  0.0047
  0.0047  0.0047  0.0047  0.0032  0.0032  0.0009  0.0009  0
  0  0  0  0  0  0  0  0.0015
  0.0032  0.0047  0.0047  0.0047  0.0047  0.0032  0.0032  0.0009
  0.0009  0  0  0  0  0  0  0
  0  0.0015  0.0037  0.0049  0.0049  0.0045  0.0045  0.0031
  0.0031  0.0011  0.0011  0  0  0  0  0
  0  0  0  0.0011  0.0037  0.0049  0.0049  0.0045
  0.0045  0.0031  0.0031  0.0011  0.0011  0  0  0
  0  0  0  0  0  0.0011  0.0047  0.0062
  0.0062  0.006  0.006  0.0046  0.0046  0.0024  0.0024  0.0004
  0.0004  0  0  0  0  0  0  0.0021
  0.0047  0.0062  0.0062  0.006  0.006  0.0046  0.0046  0.0024
  0.0024  0.0004  0.0004  0  0  0  0  0
  0  0.0021  0.0067  0.0083  0.0083  0.0085  0.0085  0.0068
  0.0068  0.005  0.005  0.0022  0.0022  0.0006  0.0006  0.0005
  0.0005  0.002  0.002  0.0045  0.0067  0.0083  0.0083  0.0085
  0.0085  0.0068  0.0068  0.005  0.005  0.0022  0.0022  0.0006
  0.0006  0.0005  0.0005  0.002  0.002  0.0045  0.0086  0.0104
  0.0104  0.0107  0.0107  0.0096  0.0096  0.0075  0.0075  0.005
  0.005  0.0034  0.0034  0.0029  0.0029  0.0045  0.0045  0.007
  0.0086  0.01  0.01  0.0099  0.0099  0.009  0.009  0.0066
  0.0066  0.0042  0.0042  0.0025  0.0025  0.003  0.003  0.0046
  0.0046  0.0069  0.01  0.0117  0.0117  0.0115  0.0115  0.0099
  0.0099  0.0078  0.0078  0.0054  0.0054  0.004  0.004  0.0043
  0.0043  0.0055  0.0055  0.0078  0.01  0.0117  0.0117  0.0115
  0.0115  0.0099  0.0099  0.0078  0.0078  0.0054  0.0054  0.004
  0.004  0.0043  0.0043  0.0055  0.0055  0.0078  0.0102  0.0116
  0.0116  0.0112  0.0112  0.0098  0.0098  0.0078  0.0078  0.0055
  0.0055  0.004  0.004  0.0043  0.0043  0.0056  0.0056  0.0076
  0.0102  0.0116  0.0116  0.0112  0.0112  0.0098  0.0098  0.0078
  0.0078  0.0055  0.0055  0.004  0.004  0.0043  0.0043  0.0056
  0.0056  0.0076  0.0091  0.0103  0.0103  0.0098  0.0098  0.0089
  0.0089  0.0067  0.0067  0.0042  0.0042  0.0027  0.0027  0.0028
  0.0028  0.0044  0.0044  0.0067  0.0091  0.0103  0.0103  0.0098
  0.0098  0.0089  0.0089  0.0067  0.0067  0.0042  0.0042  0.0027
  0.0027  0.0028  0.0028  0.0044  0.0044  0.0067  0.0068  0.0084
  0.0084  0.0083  0.0083  0.0068  0.0068  0.0047  0.0047  0.0021
  0.0021  0.0009  0.0009  0.0009  0.0009  0.0025  0.0025  0.0049
  0.0068  0.0084  0.0084  0.0083  0.0083  0.0068  0.0068  0.0047
  0.0047  0.0021  0.0021  0.0009  0.0009  0.0009  0.0009  0.0025
  0.0025  0.0049  0.0046  0.0059  0.0059  0.0059  0.0059  0.0046
  0.0046  0.0025  0.0025  0.0001  0.0001  0  0  0
  0  0.0005  0.0005  0.0027  0.0046  0.0059  0.0059  0.0059
  0.0059  0.0046  0.0046  0.0025  0.0025  0.0001  0.0001  0
  0  0  0  0.0005  0.0005  0.0027  0.0032  0.0047
  0.0047  0.0047  0.0047  0.0032  0.0032  0.0009  0.0009  0
  0  0  0  0  0  0  0  0.0015
  0.0032  0.0047  0.0047  0.0047  0.0047  0.0032  0.0032  0.0009
  0.0009  0  0  0  0  0  0  0
  0  0.0015  0.0037  0.0049  0.0049  0.0045  0.0045  0.0031
  0.0031  0.0011  0.0011  0  0  0  0  0
  0  0  0  0.0011  0.0037  0.0049  0.0049  0.0045
  0.0045  0.0031  0.0031  0.0011  0.0011  0  0  0
  0  0  0  0  0  0.0011  0.0047  0.0062
  0.0062  0.006  0.006  0.0046  0.0046  0.0024  0.0024  0.0004
  0.0004  0  0  0  0  0  0  0.0021
  0.0047  0.0062  0.0062  0.006  0.006  0.0046  0.0046  0.0024
  0.0024  0.0004  0.0004  0  0  0  0  0
  0  0.0021  0.0067  0.0083  0.0083  0.0085  0.0085  0.0068
  0.0068  0.005  0.005  0.0022  0.0022  0.0006  0.0006  0.0005
  0.0005  0.002  0.002  0.0045  0.0067  0.0083  0.0083  0.0085
  0.0085  0.0068  0.0068  0.005  0.005  0.0022  0.0022  0.0006
  0.0006  0.0005  0.0005  0.002  0.002  0.0045  0.0086  0.0104
  0.0104  0.0107  0.0107  0.0096  0.0096  0.0075  0.0075  0.005
  0.005  0.0034  0.0034  0.0029  0.0029  0.0045  0.0045  0.007
  0.0104  0.0119  0.0119  0.0118  0.0118  0.0108  0.0108  0.0082
  0.0082  0.0056  0.0056  0.0039  0.0039  0.0044  0.0044  0.0061
  0.0061  0.0086  0.0119  0.0137  0.0137  0.0134  0.0134  0.0118
  0.0118  0.0095  0.0095  0.007  0.007  0.0055  0.0055  0.0058
  0.0058  0.0071  0.0071  0.0095  0.0119  0.0137  0.0137  0.0134