<?xml version="1.0"?>
<VTKFile type="UnstructuredGrid" version="0.1" byte_order="LittleEndian">
  <UnstructuredGrid>
    <Piece NumberOfCells="100" NumberOfPoints="404">
      <CellData Scalars="pressure[0]">
        <DataArray type="Float32" Name="pressure[0]" NumberOfComponents="1" format="ascii">
          5.76665e+06 5.76716e+06 5.76767e+06 5.76818e+06 5.76869e+06 5.7692e+06 5.76971e+06 5.77022e+06 5.77073e+06 5.77124e+06 5.77175e+06 5.77226e+06
          5.77278e+06 5.77329e+06 5.7738e+06 5.77431e+06 5.77482e+06 5.77533e+06 5.77584e+06 5.77635e+06 5.77686e+06 5.77737e+06 5.77788e+06 5.77839e+06
          5.7789e+06 5.77942e+06 5.77993e+06 5.78044e+06 5.78095e+06 5.78146e+06 5.78197e+06 5.78248e+06 5.78306e+06 5.79192e+06 5.80078e+06 5.80965e+06
          5.81851e+06 5.82738e+06 5.83626e+06 5.84513e+06 5.8543e+06 5.86407e+06 5.87392e+06 5.88377e+06 5.8936e+06 5.90343e+06 5.91325e+06 5.92306e+06
          5.93287e+06 5.94266e+06 5.95245e+06 5.96223e+06 5.972e+06 5.98176e+06 5.99152e+06 6.00126e+06 6.011e+06 6.02074e+06 6.03046e+06 6.04018e+06
          6.04989e+06 6.05959e+06 6.06929e+06 6.07898e+06 6.08866e+06 6.09833e+06 6.108e+06 6.11766e+06 6.12732e+06 6.13696e+06 6.1466e+06 6.15623e+06
          6.16585e+06 6.17547e+06 6.18508e+06 6.19468e+06 6.20427e+06 6.21386e+06 6.22344e+06 6.23302e+06 6.24258e+06 6.25214e+06 6.2617e+06 6.27125e+06
          6.28081e+06 6.29047e+06 6.30041e+06 6.31054e+06 6.32071e+06 6.33088e+06 6.34106e+06 6.35124e+06 6.36142e+06 6.3716e+06 6.38178e+06 6.39196e+06
          6.40214e+06 6.41232e+06 6.4225e+06 6.43268e+06
        </DataArray>
        <DataArray type="Float32" Name="pressure[1]" NumberOfComponents="1" format="ascii">
          5.76665e+06 5.76716e+06 5.76767e+06 5.76818e+06 5.76869e+06 5.7692e+06 5.76971e+06 5.77022e+06 5.77073e+06 5.77124e+06 5.77175e+06 5.77226e+06
          5.77278e+06 5.77329e+06 5.7738e+06 5.77431e+06 5.77482e+06 5.77533e+06 5.77584e+06 5.77635e+06 5.77686e+06 5.77737e+06 5.77788e+06 5.77839e+06
          5.7789e+06 5.77942e+06 5.77993e+06 5.78044e+06 5.78095e+06 5.78146e+06 5.78197e+06 5.78248e+06 5.78306e+06 5.79192e+06 5.80078e+06 5.80965e+06
          5.81851e+06 5.82738e+06 5.83626e+06 5.84513e+06 5.8543e+06 5.86407e+06 5.87392e+06 5.88377e+06 5.8936e+06 5.90343e+06 5.91325e+06 5.92306e+06
          5.93287e+06 5.94266e+06 5.95245e+06 5.96223e+06 5.972e+06 5.98176e+06 5.99152e+06 6.00126e+06 6.011e+06 6.02074e+06 6.03046e+06 6.04018e+06
          6.04989e+06 6.05959e+06 6.06929e+06 6.07898e+06 6.08866e+06 6.09833e+06 6.108e+06 6.11766e+06 6.12732e+06 6.13696e+06 6.1466e+06 6.15623e+06
          6.16585e+06 6.17547e+06 6.18508e+06 6.19468e+06 6.20427e+06 6.21386e+06 6.22344e+06 6.23302e+06 6.24258e+06 6.25214e+06 6.2617e+06 6.27125e+06
          6.28081e+06 6.29047e+06 6.30041e+06 6.31054e+06 6.32071e+06 6.33088e+06 6.34106e+06 6.35124e+06 6.36142e+06 6.3716e+06 6.38178e+06 6.39196e+06
          6.40214e+06 6.41232e+06 6.4225e+06 6.43268e+06
        </DataArray>
        <DataArray type="Float32" Name="pressure[2]" NumberOfComponents="1" format="ascii">
          5.76665e+06 5.76716e+06 5.76767e+06 5.76818e+06 5.76869e+06 5.7692e+06 5.76971e+06 5.77022e+06 5.77073e+06 5.77124e+06 5.77175e+06 5.77226e+06
          5.77278e+06 5.77329e+06 5.7738e+06 5.77431e+06 5.77482e+06 5.77533e+06 5.77584e+06 5.77635e+06 5.77686e+06 5.77737e+06 5.77788e+06 5.77839e+06
          5.7789e+06 5.77942e+06 5.77993e+06 5.78044e+06 5.78095e+06 5.78146e+06 5.78197e+06 5.78248e+06 5.78306e+06 5.79192e+06 5.80078e+06 5.80965e+06
          5.81851e+06 5.82738e+06 5.83626e+06 5.84513e+06 5.8543e+06 5.86407e+06 5.87392e+06 5.88377e+06 5.8936e+06 5.90343e+06 5.91325e+06 5.92306e+06
          5.93287e+06 5.94266e+06 5.95245e+06 5.96223e+06 5.972e+06 5.98176e+06 5.99152e+06 6.00126e+06 6.011e+06 6.02074e+06 6.03046e+06 6.04018e+06
          6.04989e+06 6.05959e+06 6.06929e+06 6.07898e+06 6.08866e+06 6.09833e+06 6.108e+06 6.11766e+06 6.12732e+06 6.13696e+06 6.1466e+06 6.15623e+06
          6.16585e+06 6.17547e+06 6.18508e+06 6.19468e+06 6.20427e+06 6.21386e+06 6.22344e+06 6.23302e+06 6.24258e+06 6.25214e+06 6.2617e+06 6.27125e+06
          6.28081e+06 6.29047e+06 6.30041e+06 6.31054e+06 6.32071e+06 6.33088e+06 6.34106e+06 6.35124e+06 6.36142e+06 6.3716e+06 6.38178e+06 6.39196e+06
          6.40214e+06 6.41232e+06 6.4225e+06 6.43268e+06
        </DataArray>
        <DataArray type="Float32" Name="velocity[0]" NumberOfComponents="1" format="ascii">
          0 0 0 0 0 0 0 0 0 0 0 0
          0 0 0 0 0 0 0 0 0 0 0 0
          0 0 0 0 0 0 0 0 0 0 0 0
          0 0 0 0 0 0 0 0 0 0 0 0
          0 0 0 0 0 0 0 0 0 0 0 0
          0 0 0 0 0 0 0 0 0 0 0 0
          0 0 0 0 0 0 0 0 0 0 0 0
          0 0 0 0 0 0 0 0 0 0 0 0
          0 0 0 0
        </DataArray>
        <DataArray type="Float32" Name="velocity[1]" NumberOfComponents="1" format="ascii">
          0 0 0 0 0 0 0 0 0 0 0 0
          0 0 0 0 0 0 0 0 0 0 0 0
          0 0 0 0 0 0 0 0 0 0 0 0
          0 0 0 0 0 0 0 0 0 0 0 0
          0 0 0 0 0 0 0 0 0 0 0 0
          0 0 0 0 0 0 0 0 0 0 0 0
          0 0 0 0 0 0 0 0 0 0 0 0
          0 0 0 0 0 0 0 0 0 0 0 0
          0 0 0 0
        </DataArray>
        <DataArray type="Float32" Name="velocity[2]" NumberOfComponents="1" format="ascii">
          -1.19695e-12 -3.59074e-12 -5.98431e-12 -8.37767e-12 -1.07709e-11 -1.31639e-11 -1.55566e-11 -1.79493e-11 -2.03417e-11 -2.2734e-11 -2.51261e-11 -2.7518e-11
          -2.99098e-11 -3.23014e-11 -3.46929e-11 -3.70842e-11 -3.94753e-11 -4.18664e-11 -4.42573e-11 -4.6648e-11 -4.90387e-11 -5.14292e-11 -5.38196e-11 -5.62099e-11
          -5.86001e-11 -6.09902e-11 -6.33802e-11 -6.57701e-11 -6.81599e-11 -7.05497e-11 -7.29393e-11 -7.23915e-11 -7.43931e-11 -7.92455e-11 -7.99436e-11 -7.92706e-11
          -7.87986e-11 -7.84593e-11 -7.82644e-11 -7.1949e-11 -5.78255e-11 -5.7213e-11 -6.4834e-11 -6.19622e-11 -5.43765e-11 -4.52909e-11 -3.61604e-11 -2.8358e-11
          -2.29877e-11 -2.05845e-11 -2.09154e-11 -2.29712e-11 -2.51875e-11 -2.58596e-11 -2.36422e-11 -1.79844e-11 -9.35626e-12 8.18893e-13 1.05164e-11 1.76465e-11
          2.06078e-11 1.86896e-11 1.22025e-11 2.32095e-12 -9.28131e-12 -2.08572e-11 -3.09334e-11 -3.84981e-11 -4.30341e-11 -4.44522e-11 -4.29953e-11 -3.91509e-11
          -3.35763e-11 -2.70277e-11 -2.0289e-11 -1.41077e-11 -9.14071e-12 -5.89812e-12 -4.66449e-12 -5.39512e-12 -7.62856e-12 -1.04899e-11 -1.28498e-11 -1.36493e-11
          -1.22255e-11 -8.55106e-12 -4.36116e-12 -1.52094e-12 -2.96473e-13 -4.42618e-14 -5.27085e-15 -2.98479e-16 -7.8209e-17 -2.19249e-16 -1.06337e-16 1.47909e-18
          1.49361e-18 1.47927e-18 1.20353e-18 5.77406e-19
        </DataArray>
        <DataArray type="Float32" Name="z[0]" NumberOfComponents="1" format="ascii">
          0 0 0 0 0 0 0 0 0 0 0 0
          0 0 0 0 0 0 0 0 0 0 0 0
          0 0 0 0 0 0 0 0 0 0 0 0
          0 0 4.82611e-07 0.000201175 0.0441477 0.411622 0.556939 0.559478 0.551661 0.543443 0.535394 0.527554
          0.519923 0.512486 0.505221 0.498102 0.491101 0.484201 0.477395 0.470689 0.464101 0.457651 0.451358 0.445227
          0.43925 0.433407 0.427665 0.421988 0.416345 0.410715 0.405086 0.39946 0.393847 0.388262 0.382725 0.377252
          0.371862 0.366567 0.361375 0.356293 0.351318 0.346447 0.341669 0.336974 0.332353 0.327833 0.3237 0.322031
          0.337065 0.444677 0.73988 0.945342 0.99191 0.998944 0.999876 0.999987 0.999999 1 1 1
          1 1 1 1
        </DataArray>
        <DataArray type="Float32" Name="z[1]" NumberOfComponents="1" format="ascii">
          0 0 0 0 0 0 0 2.88322e-18 0 0 0 0
          0 0 0 0 0 0 0 0 0 0 0 0
          0 0 2.95029e-17 0 0 0 0 0 0.383271 0.978246 0.976571 0.975657
          0.97494 0.974371 0.974099 0.974126 0.931785 0.574031 0.432287 0.429784 0.437373 0.445325 0.453096 0.460662
          0.468042 0.47526 0.482345 0.489317 0.496187 0.502949 0.509587 0.516079 0.522402 0.528547 0.534519 0.540341
          0.546052 0.551694 0.557311 0.562933 0.568577 0.574242 0.579917 0.585581 0.591208 0.596773 0.602253 0.607629
          0.612888 0.618025 0.623038 0.627936 0.632731 0.637439 0.642082 0.646678 0.651235 0.655718 0.659833 0.661534
          0.646906 0.541907 0.253854 0.0533485 0.00789714 0.0010306 0.000121495 1.28596e-05 1.20381e-06 9.4376e-08 0 0
          0 0 0 0
        </DataArray>
        <DataArray type="Float32" Name="z[2]" NumberOfComponents="1" format="ascii">
          68.3381 68.3441 68.3502 68.3563 68.3623 68.3684 68.3744 68.3805 68.3866 68.3926 68.3987 68.4048
          68.4108 68.4169 68.423 68.429 68.4351 68.4411 68.4472 68.4533 68.4594 68.4654 68.4715 68.4776
          68.4836 68.4897 68.4958 68.5018 68.5079 68.514 68.5201 65.5669 65.5065 53.8134 56.5323 58.0655
          59.3197 60.3258 60.8205 60.8071 57.8386 35.439 26.5894 26.3581 26.76 27.2009 27.65 28.1051
          28.5633 29.0199 29.4691 29.9062 30.3291 30.7393 31.1421 31.5458 31.9594 32.3902 32.8416 33.3114
          33.792 34.2714 34.7361 35.1733 35.5735 35.932 36.2487 36.5279 36.777 37.0051 37.2222 37.4376
          37.6594 37.8939 38.1448 38.413 38.6966 38.991 39.2893 39.5834 39.8649 40.1252 40.3447 40.4029
          39.4611 33.0213 15.4564 3.2459 0.48011 0.0626011 0.00737345 0.000780042 7.3013e-05 6.36469e-06 0 0
          0 0 0 0
        </DataArray>
        <DataArray type="Float32" Name="sat[0]" NumberOfComponents="1" format="ascii">
          0 0 0 0 0 0 0 0 0 0 0 0
          0 0 0 0 0 0 0 0 0 0 0 0
          0 0 0 0 0 0 0 0 0 0 0 0
          0 0 4.82611e-07 0.000201134 0.0441264 0.411352 0.556682 0.559265 0.551493 0.543329 0.535336 0.527544
          0.519947 0.512526 0.50526 0.498125 0.491105 0.484192 0.47739 0.470709 0.464165 0.457772 0.451534 0.445447
          0.439491 0.433639 0.42786 0.422125 0.416411 0.410707 0.405011 0.399333 0.393686 0.388085 0.382549 0.377092
          0.371728 0.366466 0.36131 0.35626 0.351312 0.346458 0.341687 0.336987 0.332351 0.327813 0.323662 0.321981
          0.337012 0.444626 0.739835 0.945325 0.991907 0.998944 0.999875 0.999987 0.999999 1 1 1
          1 1 1 1
        </DataArray>
        <DataArray type="Float32" Name="sat[1]" NumberOfComponents="1" format="ascii">
          0 0 0 0 0 0 0 2.96003e-18 0 0 0 0
          0 0 0 0 0 0 0 0 0 0 0 0
          0 0 3.02902e-17 0 0 0 0 0 0.393521 1 1 1
          1 1 1 0.999799 0.955874 0.588648 0.443318 0.440735 0.448507 0.456671 0.464664 0.472456
          0.480053 0.487474 0.494741 0.501875 0.508895 0.515808 0.52261 0.529291 0.535835 0.542228 0.548466 0.554553
          0.560509 0.566361 0.57214 0.577875 0.583589 0.589293 0.594989 0.600667 0.606314 0.611915 0.617451 0.622908
          0.628272 0.633534 0.63869 0.64374 0.648688 0.653542 0.658313 0.663013 0.667649 0.672187 0.676338 0.678019
          0.662988 0.555374 0.260165 0.054675 0.00809327 0.00105615 0.000124501 1.31774e-05 1.23353e-06 9.70743e-08 0 0
          0 0 0 0
        </DataArray>
        <DataArray type="Float32" Name="sat[2]" NumberOfComponents="1" format="ascii">
          1 1 1 1 1 1 1 1 1 1 1 1
          1 1 1 1 1 1 1 1 1 1 1 1
          1 1 1 1 1 1 1 1 0.606479 0 0 0
          0 0 0 0 0 0 0 0 0 0 0 0
          0 0 0 0 0 0 0 0 0 0 0 0
          0 0 0 0 0 0 0 0 0 0 0 0
          0 0 0 0 0 0 0 0 0 0 0 0
          0 0 0 0 0 0 0 0 0 0 0 0
          0 0 0 0
        </DataArray>
        <DataArray type="Float32" Name="massFrac[0]" NumberOfComponents="1" format="ascii">
          0 0 0 0 0 0 0 0 0 0 0 0
          0 0 0 0 0 0 0 0 0 0 0 0
          0 0 0 0 0 0 0 0 0 0 0 0
          0 0 5.53744e-07 0.000230769 0.0503061 0.445034 0.590341 0.592879 0.585265 0.577247 0.569376 0.561686
          0.554169 0.54681 0.539589 0.532485 0.525484 0.518577 0.511767 0.505066 0.498487 0.492044 0.485743 0.479581
          0.473539 0.467594 0.461714 0.455872 0.450048 0.444229 0.438416 0.432614 0.426837 0.421101 0.415422 0.409816
          0.404296 0.398869 0.393542 0.388315 0.383184 0.378142 0.373179 0.368284 0.36345 0.358712 0.354376 0.352619
          0.368305 0.478697 0.765352 0.951995 0.992936 0.999079 0.999891 0.999988 0.999999 1 1 1
          1 1 1 1
        </DataArray>
        <DataArray type="Float32" Name="massFrac[1]" NumberOfComponents="1" format="ascii">
          0 0 0 0 0 0 0 4.88242e-17 0 0 0 0
          0 0 0 0 0 0 0 0 0 0 0 0
          0 0 4.9876e-16 0 0 0 0 0 0.871383 0.954648 0.952388 0.951116
          0.950078 0.949246 0.948837 0.948631 0.901375 0.526875 0.388996 0.386643 0.393921 0.401571 0.409066 0.416376
          0.423511 0.43049 0.437337 0.444076 0.450724 0.457287 0.463757 0.470118 0.476347 0.482425 0.488345 0.494113
          0.499752 0.505299 0.510792 0.51627 0.521761 0.527278 0.532822 0.538383 0.543942 0.549474 0.554957 0.560367
          0.565687 0.570901 0.576003 0.580992 0.585872 0.590656 0.59536 0.6 0.604589 0.609099 0.613243 0.614946
          0.600083 0.495242 0.222926 0.0456084 0.00671114 0.000875038 0.000103144 1.09171e-05 1.02196e-06 8.01196e-08 0 0
          0 0 0 0
        </DataArray>
        <DataArray type="Float32" Name="massFrac[2]" NumberOfComponents="1" format="ascii">
          1 1 1 1 1 1 1 1 1 1 1 1
          1 1 1 1 1 1 1 1 1 1 1 1
          1 1 1 1 1 1 1 1 0.128617 0.045352 0.0476121 0.0488838
          0.0499219 0.0507537 0.0511621 0.0511383 0.048319 0.0280908 0.0206629 0.0204778 0.0208139 0.0211826 0.021558 0.0219381
          0.0223203 0.0227006 0.0230746 0.0234389 0.0237923 0.0241362 0.0244754 0.0248166 0.0251667 0.0255311 0.0259118 0.0263064
          0.0267082 0.0271076 0.027494 0.0278576 0.0281916 0.0284928 0.028762 0.0290028 0.0292212 0.0294246 0.0296205 0.0298162
          0.0300178 0.0302298 0.0304548 0.0306933 0.0309433 0.0312011 0.0314611 0.0317166 0.0319612 0.0321883 0.0323814 0.0324346
          0.0316119 0.0260614 0.0117219 0.00239645 0.000352352 4.59016e-05 5.40586e-06 5.71882e-07 5.35288e-08 4.66621e-09 0 0
          0 0 0 0
        </DataArray>
        <DataArray type="Float32" Name="total fl. vol." NumberOfComponents="1" format="ascii">
          1 1 1 1 1 1 1 1 1 1 1 1
          1 1 1 1 1 1 1 1 1 1 1 1
          1 1 1 1 1 1 1 0.956816 0.999956 1.00003 0.999989 0.999993
          0.999994 0.999996 0.999999 1.0002 1.00048 1.00066 1.00046 1.00038 1.00031 1.00021 1.00011 1.00002
          0.999953 0.999921 0.999925 0.999955 0.999993 1.00002 1.00001 0.999957 0.999862 0.999737 0.999609 0.999506
          0.999452 0.999464 0.999543 0.999676 0.999843 1.00002 1.00018 1.00032 1.00041 1.00046 1.00046 1.00043
          1.00036 1.00028 1.00018 1.00009 1.00002 0.999969 0.999949 0.999963 1 1.00006 1.00012 1.00016
          1.00016 1.00011 1.00006 1.00002 1 1 1 1 1 1 1 1
          1 1 1 1
        </DataArray>
      </CellData>
      <Points>
        <DataArray type="Float32" Name="Coordinates" NumberOfComponents="3" format="ascii">
          0 0 0 1 0 0 0 1 0 1 1 0
          0 0 1 1 0 1 0 1 1 1 1 1
          0 0 2 1 0 2 0 1 2 1 1 2
          0 0 3 1 0 3 0 1 3 1 1 3
          0 0 4 1 0 4 0 1 4 1 1 4
          0 0 5 1 0 5 0 1 5 1 1 5
          0 0 6 1 0 6 0 1 6 1 1 6
          0 0 7 1 0 7 0 1 7 1 1 7
          0 0 8 1 0 8 0 1 8 1 1 8
          0 0 9 1 0 9 0 1 9 1 1 9
          0 0 10 1 0 10 0 1 10 1 1 10
          0 0 11 1 0 11 0 1 11 1 1 11
          0 0 12 1 0 12 0 1 12 1 1 12
          0 0 13 1 0 13 0 1 13 1 1 13
          0 0 14 1 0 14 0 1 14 1 1 14
          0 0 15 1 0 15 0 1 15 1 1 15
          0 0 16 1 0 16 0 1 16 1 1 16
          0 0 17 1 0 17 0 1 17 1 1 17
          0 0 18 1 0 18 0 1 18 1 1 18
          0 0 19 1 0 19 0 1 19 1 1 19
          0 0 20 1 0 20 0 1 20 1 1 20
          0 0 21 1 0 21 0 1 21 1 1 21
          0 0 22 1 0 22 0 1 22 1 1 22
          0 0 23 1 0 23 0 1 23 1 1 23
          0 0 24 1 0 24 0 1 24 1 1 24
          0 0 25 1 0 25 0 1 25 1 1 25
          0 0 26 1 0 26 0 1 26 1 1 26
          0 0 27 1 0 27 0 1 27 1 1 27
          0 0 28 1 0 28 0 1 28 1 1 28
          0 0 29 1 0 29 0 1 29 1 1 29
          0 0 30 1 0 30 0 1 30 1 1 30
          0 0 31 1 0 31 0 1 31 1 1 31
          0 0 32 1 0 32 0 1 32 1 1 32
          0 0 33 1 0 33 0 1 33 1 1 33
          0 0 34 1 0 34 0 1 34 1 1 34
          0 0 35 1 0 35 0 1 35 1 1 35
          0 0 36 1 0 36 0 1 36 1 1 36
          0 0 37 1 0 37 0 1 37 1 1 37
          0 0 38 1 0 38 0 1 38 1 1 38
          0 0 39 1 0 39 0 1 39 1 1 39
          0 0 40 1 0 40 0 1 40 1 1 40
          0 0 41 1 0 41 0 1 41 1 1 41
          0 0 42 1 0 42 0 1 42 1 1 42
          0 0 43 1 0 43 0 1 43 1 1 43
          0 0 44 1 0 44 0 1 44 1 1 44
          0 0 45 1 0 45 0 1 45 1 1 45
          0 0 46 1 0 46 0 1 46 1 1 46
          0 0 47 1 0 47 0 1 47 1 1 47
          0 0 48 1 0 48 0 1 48 1 1 48
          0 0 49 1 0 49 0 1 49 1 1 49
          0 0 50 1 0 50 0 1 50 1 1 50
          0 0 51 1 0 51 0 1 51 1 1 51
          0 0 52 1 0 52 0 1 52 1 1 52
          0 0 53 1 0 53 0 1 53 1 1 53
          0 0 54 1 0 54 0 1 54 1 1 54
          0 0 55 1 0 55 0 1 55 1 1 55
          0 0 56 1 0 56 0 1 56 1 1 56
          0 0 57 1 0 57 0 1 57 1 1 57
          0 0 58 1 0 58 0 1 58 1 1 58
          0 0 59 1 0 59 0 1 59 1 1 59
          0 0 60 1 0 60 0 1 60 1 1 60
          0 0 61 1 0 61 0 1 61 1 1 61
          0 0 62 1 0 62 0 1 62 1 1 62
          0 0 63 1 0 63 0 1 63 1 1 63
          0 0 64 1 0 64 0 1 64 1 1 64
          0 0 65 1 0 65 0 1 65 1 1 65
          0 0 66 1 0 66 0 1 66 1 1 66
          0 0 67 1 0 67 0 1 67 1 1 67
          0 0 68 1 0 68 0 1 68 1 1 68
          0 0 69 1 0 69 0 1 69 1 1 69
          0 0 70 1 0 70 0 1 70 1 1 70
          0 0 71 1 0 71 0 1 71 1 1 71
          0 0 72 1 0 72 0 1 72 1 1 72
          0 0 73 1 0 73 0 1 73 1 1 73
          0 0 74 1 0 74 0 1 74 1 1 74
          0 0 75 1 0 75 0 1 75 1 1 75
          0 0 76 1 0 76 0 1 76 1 1 76
          0 0 77 1 0 77 0 1 77 1 1 77
          0 0 78 1 0 78 0 1 78 1 1 78
          0 0 79 1 0 79 0 1 79 1 1 79
          0 0 80 1 0 80 0 1 80 1 1 80
          0 0 81 1 0 81 0 1 81 1 1 81
          0 0 82 1 0 82 0 1 82 1 1 82
          0 0 83 1 0 83 0 1 83 1 1 83
          0 0 84 1 0 84 0 1 84 1 1 84
          0 0 85 1 0 85 0 1 85 1 1 85
          0 0 86 1 0 86 0 1 86 1 1 86
          0 0 87 1 0 87 0 1 87 1 1 87
          0 0 88 1 0 88 0 1 88 1 1 88
          0 0 89 1 0 89 0 1 89 1 1 89
          0 0 90 1 0 90 0 1 90 1 1 90
          0 0 91 1 0 91 0 1 91 1 1 91
          0 0 92 1 0 92 0 1 92 1 1 92
          0 0 93 1 0 93 0 1 93 1 1 93
          0 0 94 1 0 94 0 1 94 1 1 94
          0 0 95 1 0 95 0 1 95 1 1 95
          0 0 96 1 0 96 0 1 96 1 1 96
          0 0 97 1 0 97 0 1 97 1 1 97
          0 0 98 1 0 98 0 1 98 1 1 98
          0 0 99 1 0 99 0 1 99 1 1 99
          0 0 100 1 0 100 0 1 100 1 1 100
        </DataArray>
      </Points>
      <Cells>
        <DataArray type="Int32" Name="connectivity" NumberOfComponents="1" format="ascii">
          0 1 3 2 4 5 7 6 4 5 7 6
          8 9 11 10 8 9 11 10 12 13 15 14
          12 13 15 14 16 17 19 18 16 17 19 18
          20 21 23 22 20 21 23 22 24 25 27 26
          24 25 27 26 28 29 31 30 28 29 31 30
          32 33 35 34 32 33 35 34 36 37 39 38
          36 37 39 38 40 41 43 42 40 41 43 42
          44 45 47 46 44 45 47 46 48 49 51 50
          48 49 51 50 52 53 55 54 52 53 55 54
          56 57 59 58 56 57 59 58 60 61 63 62
          60 61 63 62 64 65 67 66 64 65 67 66
          68 69 71 70 68 69 71 70 72 73 75 74
          72 73 75 74 76 77 79 78 76 77 79 78
          80 81 83 82 80 81 83 82 84 85 87 86
          84 85 87 86 88 89 91 90 88 89 91 90
          92 93 95 94 92 93 95 94 96 97 99 98
          96 97 99 98 100 101 103 102 100 101 103 102
          104 105 107 106 104 105 107 106 108 109 111 110
          108 109 111 110 112 113 115 114 112 113 115 114
          116 117 119 118 116 117 119 118 120 121 123 122
          120 121 123 122 124 125 127 126 124 125 127 126
          128 129 131 130 128 129 131 130 132 133 135 134
          132 133 135 134 136 137 139 138 136 137 139 138
          140 141 143 142 140 141 143 142 144 145 147 146
          144 145 147 146 148 149 151 150 148 149 151 150
          152 153 155 154 152 153 155 154 156 157 159 158
          156 157 159 158 160 161 163 162 160 161 163 162
          164 165 167 166 164 165 167 166 168 169 171 170
          168 169 171 170 172 173 175 174 172 173 175 174
          176 177 179 178 176 177 179 178 180 181 183 182
          180 181 183 182 184 185 187 186 184 185 187 186
          188 189 191 190 188 189 191 190 192 193 195 194
          192 193 195 194 196 197 199 198 196 197 199 198
          200 201 203 202 200 201 203 202 204 205 207 206
          204 205 207 206 208 209 211 210 208 209 211 210
          212 213 215 214 212 213 215 214 216 217 219 218
          216 217 219 218 220 221 223 222 220 221 223 222
          224 225 227 226 224 225 227 226 228 229 231 230
          228 229 231 230 232 233 235 234 232 233 235 234
          236 237 239 238 236 237 239 238 240 241 243 242
          240 241 243 242 244 245 247 246 244 245 247 246
          248 249 251 250 248 249 251 250 252 253 255 254
          252 253 255 254 256 257 259 258 256 257 259 258
          260 261 263 262 260 261 263 262 264 265 267 266
          264 265 267 266 268 269 271 270 268 269 271 270
          272 273 275 274 272 273 275 274 276 277 279 278
          276 277 279 278 280 281 283 282 280 281 283 282
          284 285 287 286 284 285 287 286 288 289 291 290
          288 289 291 290 292 293 295 294 292 293 295 294
          296 297 299 298 296 297 299 298 300 301 303 302
          300 301 303 302 304 305 307 306 304 305 307 306
          308 309 311 310 308 309 311 310 312 313 315 314
          312 313 315 314 316 317 319 318 316 317 319 318
          320 321 323 322 320 321 323 322 324 325 327 326
          324 325 327 326 328 329 331 330 328 329 331 330
          332 333 335 334 332 333 335 334 336 337 339 338
          336 337 339 338 340 341 343 342 340 341 343 342
          344 345 347 346 344 345 347 346 348 349 351 350
          348 349 351 350 352 353 355 354 352 353 355 354
          356 357 359 358 356 357 359 358 360 361 363 362
          360 361 363 362 364 365 367 366 364 365 367 366
          368 369 371 370 368 369 371 370 372 373 375 374
          372 373 375 374 376 377 379 378 376 377 379 378
          380 381 383 382 380 381 383 382 384 385 387 386
          384 385 387 386 388 389 391 390 388 389 391 390
          392 393 395 394 392 393 395 394 396 397 399 398
          396 397 399 398 400 401 403 402
        </DataArray>
        <DataArray type="Int32" Name="offsets" NumberOfComponents="1" format="ascii">
          8 16 24 32 40 48 56 64 72 80 88 96
          104 112 120 128 136 144 152 160 168 176 184 192
          200 208 216 224 232 240 248 256 264 272 280 288
          296 304 312 320 328 336 344 352 360 368 376 384
          392 400 408 416 424 432 440 448 456 464 472 480
          488 496 504 512 520 528 536 544 552 560 568 576
          584 592 600 608 616 624 632 640 648 656 664 672
          680 688 696 704 712 720 728 736 744 752 760 768
          776 784 792 800
        </DataArray>
        <DataArray type="UInt8" Name="types" NumberOfComponents="1" format="ascii">
          12 12 12 12 12 12 12 12 12 12 12 12
          12 12 12 12 12 12 12 12 12 12 12 12
          12 12 12 12 12 12 12 12 12 12 12 12
          12 12 12 12 12 12 12 12 12 12 12 12
          12 12 12 12 12 12 12 12 12 12 12 12
          12 12 12 12 12 12 12 12 12 12 12 12
          12 12 12 12 12 12 12 12 12 12 12 12
          12 12 12 12 12 12 12 12 12 12 12 12
          12 12 12 12
        </DataArray>
      </Cells>
    </Piece>
  </UnstructuredGrid>
</VTKFile>
