<?xml version="1.0"?>
<VTKFile type="UnstructuredGrid" version="0.1" byte_order="LittleEndian">
  <UnstructuredGrid>
    <Piece NumberOfCells="100" NumberOfPoints="404">
      <CellData Scalars="pressure[0]">
        <DataArray type="Float32" Name="pressure[0]" NumberOfComponents="1" format="ascii">
          5.7666e+06 5.76712e+06 5.76762e+06 5.76814e+06 5.76865e+06 5.76916e+06 5.76967e+06 5.77018e+06 5.77069e+06 5.7712e+06 5.77171e+06 5.77222e+06
          5.77273e+06 5.77324e+06 5.77375e+06 5.77426e+06 5.77477e+06 5.77528e+06 5.77579e+06 5.7763e+06 5.77681e+06 5.77732e+06 5.77784e+06 5.77835e+06
          5.77886e+06 5.77937e+06 5.77988e+06 5.78039e+06 5.7809e+06 5.78141e+06 5.78192e+06 5.78244e+06 5.78301e+06 5.79188e+06 5.80073e+06 5.8096e+06
          5.81846e+06 5.82736e+06 5.83694e+06 5.84683e+06 5.85672e+06 5.8666e+06 5.87648e+06 5.88634e+06 5.8962e+06 5.90604e+06 5.91588e+06 5.92571e+06
          5.93552e+06 5.94533e+06 5.95513e+06 5.96492e+06 5.9747e+06 5.98447e+06 5.99424e+06 6.00399e+06 6.01374e+06 6.02348e+06 6.03321e+06 6.04293e+06
          6.05265e+06 6.06235e+06 6.07205e+06 6.08174e+06 6.09142e+06 6.1011e+06 6.11077e+06 6.12043e+06 6.13008e+06 6.13972e+06 6.14936e+06 6.15899e+06
          6.16861e+06 6.17822e+06 6.18783e+06 6.19742e+06 6.20701e+06 6.21659e+06 6.22617e+06 6.23573e+06 6.24529e+06 6.25484e+06 6.26439e+06 6.27392e+06
          6.28346e+06 6.29298e+06 6.3025e+06 6.31207e+06 6.32186e+06 6.33194e+06 6.34211e+06 6.35229e+06 6.36247e+06 6.37265e+06 6.38283e+06 6.393e+06
          6.40318e+06 6.41336e+06 6.42354e+06 6.43372e+06
        </DataArray>
        <DataArray type="Float32" Name="pressure[1]" NumberOfComponents="1" format="ascii">
          5.7666e+06 5.76712e+06 5.76762e+06 5.76814e+06 5.76865e+06 5.76916e+06 5.76967e+06 5.77018e+06 5.77069e+06 5.7712e+06 5.77171e+06 5.77222e+06
          5.77273e+06 5.77324e+06 5.77375e+06 5.77426e+06 5.77477e+06 5.77528e+06 5.77579e+06 5.7763e+06 5.77681e+06 5.77732e+06 5.77784e+06 5.77835e+06
          5.77886e+06 5.77937e+06 5.77988e+06 5.78039e+06 5.7809e+06 5.78141e+06 5.78192e+06 5.78244e+06 5.78301e+06 5.79188e+06 5.80073e+06 5.8096e+06
          5.81846e+06 5.82736e+06 5.83694e+06 5.84683e+06 5.85672e+06 5.8666e+06 5.87648e+06 5.88634e+06 5.8962e+06 5.90604e+06 5.91588e+06 5.92571e+06
          5.93552e+06 5.94533e+06 5.95513e+06 5.96492e+06 5.9747e+06 5.98447e+06 5.99424e+06 6.00399e+06 6.01374e+06 6.02348e+06 6.03321e+06 6.04293e+06
          6.05265e+06 6.06235e+06 6.07205e+06 6.08174e+06 6.09142e+06 6.1011e+06 6.11077e+06 6.12043e+06 6.13008e+06 6.13972e+06 6.14936e+06 6.15899e+06
          6.16861e+06 6.17822e+06 6.18783e+06 6.19742e+06 6.20701e+06 6.21659e+06 6.22617e+06 6.23573e+06 6.24529e+06 6.25484e+06 6.26439e+06 6.27392e+06
          6.28346e+06 6.29298e+06 6.3025e+06 6.31207e+06 6.32186e+06 6.33194e+06 6.34211e+06 6.35229e+06 6.36247e+06 6.37265e+06 6.38283e+06 6.393e+06
          6.40318e+06 6.41336e+06 6.42354e+06 6.43372e+06
        </DataArray>
        <DataArray type="Float32" Name="pressure[2]" NumberOfComponents="1" format="ascii">
          5.7666e+06 5.76712e+06 5.76762e+06 5.76814e+06 5.76865e+06 5.76916e+06 5.76967e+06 5.77018e+06 5.77069e+06 5.7712e+06 5.77171e+06 5.77222e+06
          5.77273e+06 5.77324e+06 5.77375e+06 5.77426e+06 5.77477e+06 5.77528e+06 5.77579e+06 5.7763e+06 5.77681e+06 5.77732e+06 5.77784e+06 5.77835e+06
          5.77886e+06 5.77937e+06 5.77988e+06 5.78039e+06 5.7809e+06 5.78141e+06 5.78192e+06 5.78244e+06 5.78301e+06 5.79188e+06 5.80073e+06 5.8096e+06
          5.81846e+06 5.82736e+06 5.83694e+06 5.84683e+06 5.85672e+06 5.8666e+06 5.87648e+06 5.88634e+06 5.8962e+06 5.90604e+06 5.91588e+06 5.92571e+06
          5.93552e+06 5.94533e+06 5.95513e+06 5.96492e+06 5.9747e+06 5.98447e+06 5.99424e+06 6.00399e+06 6.01374e+06 6.02348e+06 6.03321e+06 6.04293e+06
          6.05265e+06 6.06235e+06 6.07205e+06 6.08174e+06 6.09142e+06 6.1011e+06 6.11077e+06 6.12043e+06 6.13008e+06 6.13972e+06 6.14936e+06 6.15899e+06
          6.16861e+06 6.17822e+06 6.18783e+06 6.19742e+06 6.20701e+06 6.21659e+06 6.22617e+06 6.23573e+06 6.24529e+06 6.25484e+06 6.26439e+06 6.27392e+06
          6.28346e+06 6.29298e+06 6.3025e+06 6.31207e+06 6.32186e+06 6.33194e+06 6.34211e+06 6.35229e+06 6.36247e+06 6.37265e+06 6.38283e+06 6.393e+06
          6.40318e+06 6.41336e+06 6.42354e+06 6.43372e+06
        </DataArray>
        <DataArray type="Float32" Name="velocity[0]" NumberOfComponents="1" format="ascii">
          0 0 0 0 0 0 0 0 0 0 0 0
          0 0 0 0 0 0 0 0 0 0 0 0
          0 0 0 0 0 0 0 0 0 0 0 0
          0 0 0 0 0 0 0 0 0 0 0 0
          0 0 0 0 0 0 0 0 0 0 0 0
          0 0 0 0 0 0 0 0 0 0 0 0
          0 0 0 0 0 0 0 0 0 0 0 0
          0 0 0 0 0 0 0 0 0 0 0 0
          0 0 0 0
        </DataArray>
        <DataArray type="Float32" Name="velocity[1]" NumberOfComponents="1" format="ascii">
          0 0 0 0 0 0 0 0 0 0 0 0
          0 0 0 0 0 0 0 0 0 0 0 0
          0 0 0 0 0 0 0 0 0 0 0 0
          0 0 0 0 0 0 0 0 0 0 0 0
          0 0 0 0 0 0 0 0 0 0 0 0
          0 0 0 0 0 0 0 0 0 0 0 0
          0 0 0 0 0 0 0 0 0 0 0 0
          0 0 0 0 0 0 0 0 0 0 0 0
          0 0 0 0
        </DataArray>
        <DataArray type="Float32" Name="velocity[2]" NumberOfComponents="1" format="ascii">
          8.92868e-13 2.67852e-12 4.46399e-12 6.24928e-12 8.03437e-12 9.81925e-12 1.16039e-11 1.33883e-11 1.51725e-11 1.69564e-11 1.87401e-11 2.05235e-11
          2.23067e-11 2.40895e-11 2.5872e-11 2.76542e-11 2.94361e-11 3.12176e-11 3.29988e-11 3.47796e-11 3.65601e-11 3.83401e-11 4.01198e-11 4.18991e-11
          4.3678e-11 4.54564e-11 4.72344e-11 4.9012e-11 5.0789e-11 5.25657e-11 5.43418e-11 5.00019e-11 4.56287e-11 4.38689e-11 4.2323e-11 4.40364e-11
          2.49527e-11 -8.43466e-12 -2.57252e-11 -3.34674e-11 -4.38056e-11 -5.55966e-11 -6.56284e-11 -7.30683e-11 -7.71291e-11 -7.71503e-11 -7.28178e-11 -6.44091e-11
          -5.29614e-11 -4.02516e-11 -2.85161e-11 -1.99343e-11 -1.59971e-11 -1.69674e-11 -2.1651e-11 -2.76193e-11 -3.18786e-11 -3.18012e-11 -2.6015e-11 -1.49322e-11
          -7.10957e-13 1.33624e-11 2.38681e-11 2.82823e-11 2.56734e-11 1.6832e-11 3.83256e-12 -1.0732e-11 -2.44952e-11 -3.57657e-11 -4.36129e-11 -4.77182e-11
          -4.81862e-11 -4.54302e-11 -4.01199e-11 -3.31165e-11 -2.53581e-11 -1.77411e-11 -1.1064e-11 -6.04006e-12 -3.28682e-12 -3.18867e-12 -5.63499e-12 -9.79638e-12
          -1.41665e-11 -1.69866e-11 -1.69468e-11 -1.32911e-11 -7.87473e-12 -3.21977e-12 -6.6513e-13 -8.78977e-14 -9.17274e-15 4.22874e-16 -3.264e-15 -5.84387e-15
          -1.56114e-15 1.03031e-17 1.02111e-17 4.9893e-18
        </DataArray>
        <DataArray type="Float32" Name="z[0]" NumberOfComponents="1" format="ascii">
          0 0 0 0 0 0 0 0 0 0 0 0
          0 0 0 0 0 0 0 0 0 0 0 0
          0 0 0 0 0 0 0 0 0 0 0 0
          1.97625e-06 0.00217204 0.227741 0.577916 0.606246 0.598136 0.588476 0.578849 0.569335 0.559951 0.550719 0.541667
          0.532821 0.524212 0.515857 0.507763 0.499918 0.492291 0.48484 0.47752 0.470295 0.463151 0.456093 0.449149
          0.442353 0.435738 0.429317 0.423081 0.416998 0.411021 0.4051 0.399197 0.393291 0.387378 0.381469 0.375584
          0.369746 0.363979 0.358302 0.352734 0.347286 0.341962 0.336762 0.331678 0.326702 0.32182 0.317017 0.312284
          0.307697 0.30396 0.306641 0.355356 0.5921 0.894822 0.985371 0.998318 0.99983 0.999985 0.999999 1
          1 1 1 1
        </DataArray>
        <DataArray type="Float32" Name="z[1]" NumberOfComponents="1" format="ascii">
          0 0 0 0 0 0 0 2.88322e-18 0 0 0 0
          0 0 0 0 0 0 0 0 0 0 0 0
          0 0 2.95029e-17 0 0 0 0 0 0.382925 0.978206 0.976587 0.975667
          0.974875 0.971742 0.751494 0.410958 0.383595 0.39166 0.401235 0.410767 0.420167 0.429402 0.43844 0.447249
          0.455803 0.464089 0.472112 0.479895 0.487479 0.49491 0.502227 0.509454 0.516587 0.523602 0.530459 0.537117
          0.543553 0.549773 0.555811 0.561725 0.567583 0.57344 0.579335 0.585278 0.591257 0.597246 0.603211 0.609118
          0.614935 0.620634 0.626196 0.631609 0.636872 0.641993 0.646985 0.65187 0.656674 0.661425 0.666148 0.67085
          0.67544 0.679202 0.676668 0.629155 0.398116 0.102673 0.0142825 0.00164245 0.000166296 1.46671e-05 1.09378e-06 6.40447e-08
          0 0 0 0
        </DataArray>
        <DataArray type="Float32" Name="z[2]" NumberOfComponents="1" format="ascii">
          68.3375 68.3436 68.3496 68.3557 68.3618 68.3678 68.3739 68.3799 68.386 68.3921 68.3981 68.4042
          68.4103 68.4163 68.4224 68.4285 68.4345 68.4406 68.4467 68.4527 68.4588 68.4649 68.4709 68.477
          68.4831 68.4891 68.4952 68.5013 68.5074 68.5134 68.5195 65.5651 65.511 53.8039 56.5334 58.0658
          59.3155 60.162 46.9036 25.6965 23.9807 24.4524 24.9923 25.5064 25.9948 26.4632 26.9194 27.3718
          27.8286 28.2957 28.7753 29.2649 29.7573 30.2427 30.7114 31.1568 31.5789 31.9844 32.3866 32.8011
          33.2418 33.7162 34.2223 34.7488 35.2774 35.7874 36.2609 36.6854 37.0563 37.3755 37.6504 37.8913
          38.1103 38.3197 38.5311 38.7543 38.9962 39.2604 39.547 39.8526 40.1705 40.4907 40.801 41.0888
          41.3411 41.5155 41.2903 38.3284 24.2233 6.24102 0.867297 0.0996289 0.0100766 0.00088946 6.71108e-05 2.38862e-06
          0 0 0 0
        </DataArray>
        <DataArray type="Float32" Name="sat[0]" NumberOfComponents="1" format="ascii">
          0 0 0 0 0 0 0 0 0 0 0 0
          0 0 0 0 0 0 0 0 0 0 0 0
          0 0 0 0 0 0 0 0 0 0 0 0
          1.97639e-06 0.0021732 0.227923 0.578023 0.60622 0.598023 0.588289 0.578605 0.569054 0.55966 0.550447 0.541438
          0.532659 0.524126 0.515845 0.507808 0.499991 0.492361 0.484881 0.477519 0.47026 0.463103 0.456066 0.449177
          0.442459 0.435926 0.42957 0.423367 0.417274 0.411249 0.405252 0.39926 0.393267 0.38728 0.381317 0.3754
          0.369551 0.363792 0.358139 0.352606 0.347197 0.341913 0.336748 0.331692 0.326731 0.32185 0.317033 0.312277
          0.307662 0.303902 0.306572 0.355287 0.592031 0.894784 0.985364 0.998317 0.99983 0.999985 0.999999 1
          1 1 1 1
        </DataArray>
        <DataArray type="Float32" Name="sat[1]" NumberOfComponents="1" format="ascii">
          0 0 0 0 0 0 0 2.96003e-18 0 0 0 0
          0 0 0 0 0 0 0 0 0 0 0 0
          0 0 3.02902e-17 0 0 0 0 0 0.393152 1 1 1
          0.999998 0.997827 0.772077 0.421977 0.39378 0.401977 0.411711 0.421395 0.430946 0.44034 0.449553 0.458562
          0.467341 0.475874 0.484155 0.492192 0.500009 0.507639 0.515119 0.522481 0.52974 0.536897 0.543934 0.550823
          0.557541 0.564074 0.57043 0.576633 0.582726 0.588751 0.594748 0.60074 0.606733 0.61272 0.618683 0.6246
          0.630449 0.636208 0.641861 0.647394 0.652803 0.658087 0.663252 0.668308 0.673269 0.67815 0.682967 0.687723
          0.692338 0.696098 0.693428 0.644713 0.407969 0.105216 0.0146361 0.00168303 0.000170396 1.50289e-05 1.12119e-06 6.47357e-08
          0 0 0 0
        </DataArray>
        <DataArray type="Float32" Name="sat[2]" NumberOfComponents="1" format="ascii">
          1 1 1 1 1 1 1 1 1 1 1 1
          1 1 1 1 1 1 1 1 1 1 1 1
          1 1 1 1 1 1 1 1 0.606848 0 0 0
          0 0 0 0 0 0 0 0 0 0 0 0
          0 0 0 0 0 0 0 0 4.98432e-17 0 0 0
          0 0 0 0 0 0 0 0 0 0 0 0
          0 0 0 0 0 0 0 0 0 0 0 0
          0 0 0 0 0 0 0 0 0 0 0 0
          0 0 0 0
        </DataArray>
        <DataArray type="Float32" Name="massFrac[0]" NumberOfComponents="1" format="ascii">
          0 0 0 0 0 0 0 0 0 0 0 0
          0 0 0 0 0 0 0 0 0 0 0 0
          0 0 0 0 0 0 0 0 0 0 0 0
          2.26869e-06 0.00249308 0.253017 0.611141 0.638506 0.630573 0.621133 0.61172 0.602414 0.593238 0.584216 0.575371
          0.566727 0.558301 0.550102 0.542122 0.534343 0.526733 0.519258 0.511889 0.504609 0.49742 0.490336 0.483384
          0.476588 0.46996 0.463497 0.457174 0.450953 0.444792 0.438655 0.432519 0.426378 0.420238 0.414117 0.408036
          0.402016 0.396079 0.390242 0.384516 0.378909 0.373419 0.368043 0.36277 0.357587 0.352481 0.347435 0.342447
          0.337604 0.333656 0.336464 0.387278 0.624686 0.907011 0.987215 0.998532 0.999851 0.999987 0.999999 1
          1 1 1 1
        </DataArray>
        <DataArray type="Float32" Name="massFrac[1]" NumberOfComponents="1" format="ascii">
          0 0 0 0 0 0 0 4.88246e-17 0 0 0 0
          0 0 0 0 0 0 0 0 0 0 0 0
          0 0 4.98764e-16 0 0 0 0 0 0.871274 0.954654 0.952388 0.951117
          0.950076 0.946881 0.708779 0.368936 0.342977 0.350527 0.359527 0.368519 0.377421 0.386207 0.394848 0.403313
          0.411573 0.419605 0.427401 0.43497 0.442338 0.449544 0.456628 0.463625 0.47055 0.477396 0.484138 0.490735
          0.497155 0.50338 0.509416 0.515298 0.521078 0.526815 0.532559 0.53834 0.544169 0.550036 0.555918 0.561784
          0.567605 0.573349 0.578991 0.584511 0.589898 0.595149 0.600271 0.605274 0.610178 0.615006 0.619782 0.62452
          0.629141 0.632934 0.63032 0.582097 0.356578 0.0883507 0.0121477 0.00139464 0.000141179 1.24516e-05 9.28558e-07 5.43701e-08
          0 0 0 0
        </DataArray>
        <DataArray type="Float32" Name="massFrac[2]" NumberOfComponents="1" format="ascii">
          1 1 1 1 1 1 1 1 1 1 1 1
          1 1 1 1 1 1 1 1 1 1 1 1
          1 1 1 1 1 1 1 1 0.128726 0.045346 0.0476122 0.0488835
          0.0499216 0.0506264 0.0382034 0.0199222 0.0185168 0.0188993 0.0193396 0.0197617 0.0201651 0.0205546 0.0209361 0.021316
          0.0217005 0.0220938 0.0224968 0.0229071 0.0233186 0.0237234 0.0241141 0.0244864 0.024841 0.0251841 0.0255265 0.0258808
          0.026257 0.0266601 0.0270873 0.0275286 0.0279692 0.028393 0.0287863 0.0291406 0.029453 0.0297259 0.0299654 0.0301799
          0.0303787 0.0305714 0.0307668 0.0309724 0.031193 0.0314312 0.0316867 0.0319564 0.0322348 0.0325136 0.032783 0.0330335
          0.0332547 0.0334103 0.0332157 0.0306245 0.0187365 0.00463787 0.000637041 7.30577e-05 7.38776e-06 6.52101e-07 4.92017e-08 1.75119e-09
          0 0 0 0
        </DataArray>
        <DataArray type="Float32" Name="total fl. vol." NumberOfComponents="1" format="ascii">
          1 1 1 1 1 1 1 1 1 1 1 1
          1 1 1 1 1 1 1 1 1 1 1 1
          1 1 1 1 1 1 1 0.956797 0.999991 0.999983 1.00001 1
          0.999929 0.999469 0.999205 0.999815 1.00004 1.00019 1.00032 1.00042 1.00049 1.00052 1.0005 1.00042
          1.0003 1.00016 1.00002 0.999913 0.999855 0.999858 0.999915 1 1.00008 1.0001 1.00006 0.999938
          0.999762 0.99957 0.999411 0.999326 0.999338 0.999446 0.999625 0.999842 1.00006 1.00025 1.0004 1.00049
          1.00053 1.00051 1.00046 1.00037 1.00026 1.00014 1.00004 0.999959 0.999912 0.999906 0.999947 1.00002
          1.00012 1.00019 1.00022 1.00019 1.00012 1.00004 1.00001 1 1 1 1 1
          1 1 1 1
        </DataArray>
      </CellData>
      <Points>
        <DataArray type="Float32" Name="Coordinates" NumberOfComponents="3" format="ascii">
          0 0 0 1 0 0 0 1 0 1 1 0
          0 0 1 1 0 1 0 1 1 1 1 1
          0 0 2 1 0 2 0 1 2 1 1 2
          0 0 3 1 0 3 0 1 3 1 1 3
          0 0 4 1 0 4 0 1 4 1 1 4
          0 0 5 1 0 5 0 1 5 1 1 5
          0 0 6 1 0 6 0 1 6 1 1 6
          0 0 7 1 0 7 0 1 7 1 1 7
          0 0 8 1 0 8 0 1 8 1 1 8
          0 0 9 1 0 9 0 1 9 1 1 9
          0 0 10 1 0 10 0 1 10 1 1 10
          0 0 11 1 0 11 0 1 11 1 1 11
          0 0 12 1 0 12 0 1 12 1 1 12
          0 0 13 1 0 13 0 1 13 1 1 13
          0 0 14 1 0 14 0 1 14 1 1 14
          0 0 15 1 0 15 0 1 15 1 1 15
          0 0 16 1 0 16 0 1 16 1 1 16
          0 0 17 1 0 17 0 1 17 1 1 17
          0 0 18 1 0 18 0 1 18 1 1 18
          0 0 19 1 0 19 0 1 19 1 1 19
          0 0 20 1 0 20 0 1 20 1 1 20
          0 0 21 1 0 21 0 1 21 1 1 21
          0 0 22 1 0 22 0 1 22 1 1 22
          0 0 23 1 0 23 0 1 23 1 1 23
          0 0 24 1 0 24 0 1 24 1 1 24
          0 0 25 1 0 25 0 1 25 1 1 25
          0 0 26 1 0 26 0 1 26 1 1 26
          0 0 27 1 0 27 0 1 27 1 1 27
          0 0 28 1 0 28 0 1 28 1 1 28
          0 0 29 1 0 29 0 1 29 1 1 29
          0 0 30 1 0 30 0 1 30 1 1 30
          0 0 31 1 0 31 0 1 31 1 1 31
          0 0 32 1 0 32 0 1 32 1 1 32
          0 0 33 1 0 33 0 1 33 1 1 33
          0 0 34 1 0 34 0 1 34 1 1 34
          0 0 35 1 0 35 0 1 35 1 1 35
          0 0 36 1 0 36 0 1 36 1 1 36
          0 0 37 1 0 37 0 1 37 1 1 37
          0 0 38 1 0 38 0 1 38 1 1 38
          0 0 39 1 0 39 0 1 39 1 1 39
          0 0 40 1 0 40 0 1 40 1 1 40
          0 0 41 1 0 41 0 1 41 1 1 41
          0 0 42 1 0 42 0 1 42 1 1 42
          0 0 43 1 0 43 0 1 43 1 1 43
          0 0 44 1 0 44 0 1 44 1 1 44
          0 0 45 1 0 45 0 1 45 1 1 45
          0 0 46 1 0 46 0 1 46 1 1 46
          0 0 47 1 0 47 0 1 47 1 1 47
          0 0 48 1 0 48 0 1 48 1 1 48
          0 0 49 1 0 49 0 1 49 1 1 49
          0 0 50 1 0 50 0 1 50 1 1 50
          0 0 51 1 0 51 0 1 51 1 1 51
          0 0 52 1 0 52 0 1 52 1 1 52
          0 0 53 1 0 53 0 1 53 1 1 53
          0 0 54 1 0 54 0 1 54 1 1 54
          0 0 55 1 0 55 0 1 55 1 1 55
          0 0 56 1 0 56 0 1 56 1 1 56
          0 0 57 1 0 57 0 1 57 1 1 57
          0 0 58 1 0 58 0 1 58 1 1 58
          0 0 59 1 0 59 0 1 59 1 1 59
          0 0 60 1 0 60 0 1 60 1 1 60
          0 0 61 1 0 61 0 1 61 1 1 61
          0 0 62 1 0 62 0 1 62 1 1 62
          0 0 63 1 0 63 0 1 63 1 1 63
          0 0 64 1 0 64 0 1 64 1 1 64
          0 0 65 1 0 65 0 1 65 1 1 65
          0 0 66 1 0 66 0 1 66 1 1 66
          0 0 67 1 0 67 0 1 67 1 1 67
          0 0 68 1 0 68 0 1 68 1 1 68
          0 0 69 1 0 69 0 1 69 1 1 69
          0 0 70 1 0 70 0 1 70 1 1 70
          0 0 71 1 0 71 0 1 71 1 1 71
          0 0 72 1 0 72 0 1 72 1 1 72
          0 0 73 1 0 73 0 1 73 1 1 73
          0 0 74 1 0 74 0 1 74 1 1 74
          0 0 75 1 0 75 0 1 75 1 1 75
          0 0 76 1 0 76 0 1 76 1 1 76
          0 0 77 1 0 77 0 1 77 1 1 77
          0 0 78 1 0 78 0 1 78 1 1 78
          0 0 79 1 0 79 0 1 79 1 1 79
          0 0 80 1 0 80 0 1 80 1 1 80
          0 0 81 1 0 81 0 1 81 1 1 81
          0 0 82 1 0 82 0 1 82 1 1 82
          0 0 83 1 0 83 0 1 83 1 1 83
          0 0 84 1 0 84 0 1 84 1 1 84
          0 0 85 1 0 85 0 1 85 1 1 85
          0 0 86 1 0 86 0 1 86 1 1 86
          0 0 87 1 0 87 0 1 87 1 1 87
          0 0 88 1 0 88 0 1 88 1 1 88
          0 0 89 1 0 89 0 1 89 1 1 89
          0 0 90 1 0 90 0 1 90 1 1 90
          0 0 91 1 0 91 0 1 91 1 1 91
          0 0 92 1 0 92 0 1 92 1 1 92
          0 0 93 1 0 93 0 1 93 1 1 93
          0 0 94 1 0 94 0 1 94 1 1 94
          0 0 95 1 0 95 0 1 95 1 1 95
          0 0 96 1 0 96 0 1 96 1 1 96
          0 0 97 1 0 97 0 1 97 1 1 97
          0 0 98 1 0 98 0 1 98 1 1 98
          0 0 99 1 0 99 0 1 99 1 1 99
          0 0 100 1 0 100 0 1 100 1 1 100
        </DataArray>
      </Points>
      <Cells>
        <DataArray type="Int32" Name="connectivity" NumberOfComponents="1" format="ascii">
          0 1 3 2 4 5 7 6 4 5 7 6
          8 9 11 10 8 9 11 10 12 13 15 14
          12 13 15 14 16 17 19 18 16 17 19 18
          20 21 23 22 20 21 23 22 24 25 27 26
          24 25 27 26 28 29 31 30 28 29 31 30
          32 33 35 34 32 33 35 34 36 37 39 38
          36 37 39 38 40 41 43 42 40 41 43 42
          44 45 47 46 44 45 47 46 48 49 51 50
          48 49 51 50 52 53 55 54 52 53 55 54
          56 57 59 58 56 57 59 58 60 61 63 62
          60 61 63 62 64 65 67 66 64 65 67 66
          68 69 71 70 68 69 71 70 72 73 75 74
          72 73 75 74 76 77 79 78 76 77 79 78
          80 81 83 82 80 81 83 82 84 85 87 86
          84 85 87 86 88 89 91 90 88 89 91 90
          92 93 95 94 92 93 95 94 96 97 99 98
          96 97 99 98 100 101 103 102 100 101 103 102
          104 105 107 106 104 105 107 106 108 109 111 110
          108 109 111 110 112 113 115 114 112 113 115 114
          116 117 119 118 116 117 119 118 120 121 123 122
          120 121 123 122 124 125 127 126 124 125 127 126
          128 129 131 130 128 129 131 130 132 133 135 134
          132 133 135 134 136 137 139 138 136 137 139 138
          140 141 143 142 140 141 143 142 144 145 147 146
          144 145 147 146 148 149 151 150 148 149 151 150
          152 153 155 154 152 153 155 154 156 157 159 158
          156 157 159 158 160 161 163 162 160 161 163 162
          164 165 167 166 164 165 167 166 168 169 171 170
          168 169 171 170 172 173 175 174 172 173 175 174
          176 177 179 178 176 177 179 178 180 181 183 182
          180 181 183 182 184 185 187 186 184 185 187 186
          188 189 191 190 188 189 191 190 192 193 195 194
          192 193 195 194 196 197 199 198 196 197 199 198
          200 201 203 202 200 201 203 202 204 205 207 206
          204 205 207 206 208 209 211 210 208 209 211 210
          212 213 215 214 212 213 215 214 216 217 219 218
          216 217 219 218 220 221 223 222 220 221 223 222
          224 225 227 226 224 225 227 226 228 229 231 230
          228 229 231 230 232 233 235 234 232 233 235 234
          236 237 239 238 236 237 239 238 240 241 243 242
          240 241 243 242 244 245 247 246 244 245 247 246
          248 249 251 250 248 249 251 250 252 253 255 254
          252 253 255 254 256 257 259 258 256 257 259 258
          260 261 263 262 260 261 263 262 264 265 267 266
          264 265 267 266 268 269 271 270 268 269 271 270
          272 273 275 274 272 273 275 274 276 277 279 278
          276 277 279 278 280 281 283 282 280 281 283 282
          284 285 287 286 284 285 287 286 288 289 291 290
          288 289 291 290 292 293 295 294 292 293 295 294
          296 297 299 298 296 297 299 298 300 301 303 302
          300 301 303 302 304 305 307 306 304 305 307 306
          308 309 311 310 308 309 311 310 312 313 315 314
          312 313 315 314 316 317 319 318 316 317 319 318
          320 321 323 322 320 321 323 322 324 325 327 326
          324 325 327 326 328 329 331 330 328 329 331 330
          332 333 335 334 332 333 335 334 336 337 339 338
          336 337 339 338 340 341 343 342 340 341 343 342
          344 345 347 346 344 345 347 346 348 349 351 350
          348 349 351 350 352 353 355 354 352 353 355 354
          356 357 359 358 356 357 359 358 360 361 363 362
          360 361 363 362 364 365 367 366 364 365 367 366
          368 369 371 370 368 369 371 370 372 373 375 374
          372 373 375 374 376 377 379 378 376 377 379 378
          380 381 383 382 380 381 383 382 384 385 387 386
          384 385 387 386 388 389 391 390 388 389 391 390
          392 393 395 394 392 393 395 394 396 397 399 398
          396 397 399 398 400 401 403 402
        </DataArray>
        <DataArray type="Int32" Name="offsets" NumberOfComponents="1" format="ascii">
          8 16 24 32 40 48 56 64 72 80 88 96
          104 112 120 128 136 144 152 160 168 176 184 192
          200 208 216 224 232 240 248 256 264 272 280 288
          296 304 312 320 328 336 344 352 360 368 376 384
          392 400 408 416 424 432 440 448 456 464 472 480
          488 496 504 512 520 528 536 544 552 560 568 576
          584 592 600 608 616 624 632 640 648 656 664 672
          680 688 696 704 712 720 728 736 744 752 760 768
          776 784 792 800
        </DataArray>
        <DataArray type="UInt8" Name="types" NumberOfComponents="1" format="ascii">
          12 12 12 12 12 12 12 12 12 12 12 12
          12 12 12 12 12 12 12 12 12 12 12 12
          12 12 12 12 12 12 12 12 12 12 12 12
          12 12 12 12 12 12 12 12 12 12 12 12
          12 12 12 12 12 12 12 12 12 12 12 12
          12 12 12 12 12 12 12 12 12 12 12 12
          12 12 12 12 12 12 12 12 12 12 12 12
          12 12 12 12 12 12 12 12 12 12 12 12
          12 12 12 12
        </DataArray>
      </Cells>
    </Piece>
  </UnstructuredGrid>
</VTKFile>
