<?xml version="1.0"?>
<VTKFile type="UnstructuredGrid" version="0.1" byte_order="LittleEndian">
  <UnstructuredGrid>
    <Piece NumberOfCells="100" NumberOfPoints="404">
      <CellData Scalars="pressure[0]">
        <DataArray type="Float32" Name="pressure[0]" NumberOfComponents="1" format="ascii">
          5.50971e+06 5.5102e+06 5.51069e+06 5.51117e+06 5.51166e+06 5.51215e+06 5.51268e+06 5.51387e+06 5.51967e+06 5.52597e+06 5.53227e+06 5.53857e+06
          5.54487e+06 5.55117e+06 5.55747e+06 5.56377e+06 5.57006e+06 5.57636e+06 5.58265e+06 5.58895e+06 5.59524e+06 5.60153e+06 5.60783e+06 5.61412e+06
          5.62041e+06 5.6267e+06 5.63299e+06 5.63928e+06 5.64556e+06 5.65183e+06 5.65808e+06 5.66426e+06 5.67032e+06 5.67621e+06 5.68188e+06 5.68729e+06
          5.69243e+06 5.6973e+06 5.70189e+06 5.70621e+06 5.71025e+06 5.71404e+06 5.71757e+06 5.72086e+06 5.72392e+06 5.72675e+06 5.72936e+06 5.73178e+06
          5.734e+06 5.73605e+06 5.73793e+06 5.73966e+06 5.74126e+06 5.74274e+06 5.74412e+06 5.74541e+06 5.74662e+06 5.74778e+06 5.74888e+06 5.74995e+06
          5.75098e+06 5.75198e+06 5.75296e+06 5.75391e+06 5.75485e+06 5.75577e+06 5.75668e+06 5.75756e+06 5.75843e+06 5.75928e+06 5.76011e+06 5.76092e+06
          5.76171e+06 5.76247e+06 5.7632e+06 5.76391e+06 5.76458e+06 5.76523e+06 5.76585e+06 5.76645e+06 5.76703e+06 5.76759e+06 5.76814e+06 5.76868e+06
          5.7692e+06 5.76973e+06 5.77025e+06 5.77076e+06 5.77127e+06 5.77179e+06 5.7723e+06 5.77281e+06 5.77332e+06 5.77383e+06 5.77434e+06 5.77485e+06
          5.77536e+06 5.77587e+06 5.77638e+06 5.77689e+06
        </DataArray>
        <DataArray type="Float32" Name="pressure[1]" NumberOfComponents="1" format="ascii">
          5.50971e+06 5.5102e+06 5.51069e+06 5.51117e+06 5.51166e+06 5.51215e+06 5.51268e+06 5.51387e+06 5.51967e+06 5.52597e+06 5.53227e+06 5.53857e+06
          5.54487e+06 5.55117e+06 5.55747e+06 5.56377e+06 5.57006e+06 5.57636e+06 5.58265e+06 5.58895e+06 5.59524e+06 5.60153e+06 5.60783e+06 5.61412e+06
          5.62041e+06 5.6267e+06 5.63299e+06 5.63928e+06 5.64556e+06 5.65183e+06 5.65808e+06 5.66426e+06 5.67032e+06 5.67621e+06 5.68188e+06 5.68729e+06
          5.69243e+06 5.6973e+06 5.70189e+06 5.70621e+06 5.71025e+06 5.71404e+06 5.71757e+06 5.72086e+06 5.72392e+06 5.72675e+06 5.72936e+06 5.73178e+06
          5.734e+06 5.73605e+06 5.73793e+06 5.73966e+06 5.74126e+06 5.74274e+06 5.74412e+06 5.74541e+06 5.74662e+06 5.74778e+06 5.74888e+06 5.74995e+06
          5.75098e+06 5.75198e+06 5.75296e+06 5.75391e+06 5.75485e+06 5.75577e+06 5.75668e+06 5.75756e+06 5.75843e+06 5.75928e+06 5.76011e+06 5.76092e+06
          5.76171e+06 5.76247e+06 5.7632e+06 5.76391e+06 5.76458e+06 5.76523e+06 5.76585e+06 5.76645e+06 5.76703e+06 5.76759e+06 5.76814e+06 5.76868e+06
          5.7692e+06 5.76973e+06 5.77025e+06 5.77076e+06 5.77127e+06 5.77179e+06 5.7723e+06 5.77281e+06 5.77332e+06 5.77383e+06 5.77434e+06 5.77485e+06
          5.77536e+06 5.77587e+06 5.77638e+06 5.77689e+06
        </DataArray>
        <DataArray type="Float32" Name="pressure[2]" NumberOfComponents="1" format="ascii">
          5.50971e+06 5.5102e+06 5.51069e+06 5.51117e+06 5.51166e+06 5.51215e+06 5.51268e+06 5.51387e+06 5.51967e+06 5.52597e+06 5.53227e+06 5.53857e+06
          5.54487e+06 5.55117e+06 5.55747e+06 5.56377e+06 5.57006e+06 5.57636e+06 5.58265e+06 5.58895e+06 5.59524e+06 5.60153e+06 5.60783e+06 5.61412e+06
          5.62041e+06 5.6267e+06 5.63299e+06 5.63928e+06 5.64556e+06 5.65183e+06 5.65808e+06 5.66426e+06 5.67032e+06 5.67621e+06 5.68188e+06 5.68729e+06
          5.69243e+06 5.6973e+06 5.70189e+06 5.70621e+06 5.71025e+06 5.71404e+06 5.71757e+06 5.72086e+06 5.72392e+06 5.72675e+06 5.72936e+06 5.73178e+06
          5.734e+06 5.73605e+06 5.73793e+06 5.73966e+06 5.74126e+06 5.74274e+06 5.74412e+06 5.74541e+06 5.74662e+06 5.74778e+06 5.74888e+06 5.74995e+06
          5.75098e+06 5.75198e+06 5.75296e+06 5.75391e+06 5.75485e+06 5.75577e+06 5.75668e+06 5.75756e+06 5.75843e+06 5.75928e+06 5.76011e+06 5.76092e+06
          5.76171e+06 5.76247e+06 5.7632e+06 5.76391e+06 5.76458e+06 5.76523e+06 5.76585e+06 5.76645e+06 5.76703e+06 5.76759e+06 5.76814e+06 5.76868e+06
          5.7692e+06 5.76973e+06 5.77025e+06 5.77076e+06 5.77127e+06 5.77179e+06 5.7723e+06 5.77281e+06 5.77332e+06 5.77383e+06 5.77434e+06 5.77485e+06
          5.77536e+06 5.77587e+06 5.77638e+06 5.77689e+06
        </DataArray>
        <DataArray type="Float32" Name="velocity[0]" NumberOfComponents="1" format="ascii">
          0 0 0 0 0 0 0 0 0 0 0 0
          0 0 0 0 0 0 0 0 0 0 0 0
          0 0 0 0 0 0 0 0 0 0 0 0
          0 0 0 0 0 0 0 0 0 0 0 0
          0 0 0 0 0 0 0 0 0 0 0 0
          0 0 0 0 0 0 0 0 0 0 0 0
          0 0 0 0 0 0 0 0 0 0 0 0
          0 0 0 0 0 0 0 0 0 0 0 0
          0 0 0 0
        </DataArray>
        <DataArray type="Float32" Name="velocity[1]" NumberOfComponents="1" format="ascii">
          0 0 0 0 0 0 0 0 0 0 0 0
          0 0 0 0 0 0 0 0 0 0 0 0
          0 0 0 0 0 0 0 0 0 0 0 0
          0 0 0 0 0 0 0 0 0 0 0 0
          0 0 0 0 0 0 0 0 0 0 0 0
          0 0 0 0 0 0 0 0 0 0 0 0
          0 0 0 0 0 0 0 0 0 0 0 0
          0 0 0 0 0 0 0 0 0 0 0 0
          0 0 0 0
        </DataArray>
        <DataArray type="Float32" Name="velocity[2]" NumberOfComponents="1" format="ascii">
          -2.60864e-10 -7.82574e-10 -1.30427e-09 -1.82618e-09 -2.35159e-09 -2.92202e-09 -3.3874e-09 -3.23168e-09 -2.47202e-09 -1.60872e-09 -7.4332e-10 1.52757e-10
          1.00309e-09 1.84225e-09 2.74454e-09 3.60574e-09 4.43097e-09 5.26594e-09 6.07012e-09 6.90022e-09 7.81853e-09 8.75663e-09 9.58527e-09 1.03797e-08
          1.12371e-08 1.20909e-08 1.2918e-08 1.37454e-08 1.45733e-08 1.53961e-08 1.62099e-08 1.70073e-08 1.77777e-08 1.85102e-08 1.91951e-08 1.98253e-08
          2.03963e-08 2.0906e-08 2.13536e-08 2.17394e-08 2.20641e-08 2.23293e-08 2.25363e-08 2.26871e-08 2.27833e-08 2.28272e-08 2.28208e-08 2.27664e-08
          2.26666e-08 2.25242e-08 2.23419e-08 2.21231e-08 2.18709e-08 2.15888e-08 2.12803e-08 2.09487e-08 2.05974e-08 2.02294e-08 1.98476e-08 1.94546e-08
          1.90526e-08 1.86434e-08 1.82286e-08 1.78093e-08 1.73864e-08 1.69606e-08 1.65322e-08 1.61015e-08 1.56685e-08 1.52332e-08 1.47953e-08 1.43547e-08
          1.3911e-08 1.34637e-08 1.30123e-08 1.25564e-08 1.20952e-08 1.16282e-08 1.11549e-08 1.06748e-08 1.01876e-08 9.69336e-09 9.19231e-09 8.685e-09
          8.17218e-09 7.65476e-09 7.13363e-09 6.60971e-09 6.08375e-09 5.55641e-09 5.02815e-09 4.49934e-09 3.97023e-09 3.44096e-09 2.91158e-09 2.38216e-09
          1.85274e-09 1.32334e-09 7.93974e-10 2.64651e-10
        </DataArray>
        <DataArray type="Float32" Name="z[0]" NumberOfComponents="1" format="ascii">
          0 2.38057e-08 3.1246e-07 2.69977e-06 2.1164e-05 0.000192673 0.00202019 0.0252963 0.308713 0.943853 0.961134 0.977738
          0.980351 0.98657 0.982351 0.981246 0.981891 0.982304 0.982175 0.982113 0.982148 0.982162 0.982171 0.982183
          0.982194 0.982196 0.982162 0.981953 0.981038 0.977772 0.968347 0.94713 0.910342 0.859605 0.800412 0.73839
          0.677423 0.619632 0.565937 0.516564 0.471389 0.430125 0.392427 0.357943 0.326339 0.29731 0.27058 0.245902
          0.223055 0.201842 0.182087 0.16363 0.146334 0.130081 0.114779 0.10037 0.08683 0.0741743 0.0624522 0.0517355
          0.0421005 0.0336098 0.0262943 0.0201437 0.0151035 0.0110807 0.00795391 0.00558697 0.0038412 0.00258588 0.00170527 0.00110212
          0.000698462 0.000434275 0.000265053 0.000158884 9.35915e-05 5.42016e-05 3.0874e-05 1.73032e-05 9.54383e-06 5.18156e-06 2.76945e-06 1.45734e-06
          7.55096e-07 3.85259e-07 1.93579e-07 9.58007e-08 4.67025e-08 2.24304e-08 1.06153e-08 4.95108e-09 2.27628e-09 1.03181e-09 4.6122e-10 2.03353e-10
          8.84553e-11 3.79684e-11 1.60858e-11 1.13949e-11
        </DataArray>
        <DataArray type="Float32" Name="z[1]" NumberOfComponents="1" format="ascii">
          0 0 2.57404e-18 0 0 5.75706e-18 0 0 1.63745e-17 0 0 7.07268e-18
          9.70322e-19 2.22812e-18 2.51178e-18 0 0 0 1.21393e-18 0 4.37186e-19 0 2.83971e-08 2.3325e-07
          1.59388e-06 9.66712e-06 5.40218e-05 0.000269309 0.00117114 0.00436139 0.0135377 0.0341554 0.0698405 0.118954 0.176114 0.235846
          0.29438 0.349662 0.400808 0.447594 0.490138 0.528707 0.563623 0.595208 0.623763 0.649558 0.672826 0.693769
          0.712557 0.729333 0.744217 0.757309 0.768694 0.778445 0.786631 0.793319 0.798584 0.802507 0.80518 0.806701
          0.807171 0.806685 0.805325 0.803157 0.800226 0.796549 0.792113 0.786872 0.780734 0.773557 0.765133 0.755167
          0.743261 0.72888 0.711335 0.68978 0.663246 0.630754 0.59151 0.545175 0.492138 0.433678 0.371934 0.309645
          0.249725 0.194795 0.146802 0.106811 0.0750025 0.0508239 0.0332392 0.020987 0.0127984 0.00754216 0.00429757 0.00236926
          0.0012646 0.000653936 0.00032783 0.000295994
        </DataArray>
        <DataArray type="Float32" Name="z[2]" NumberOfComponents="1" format="ascii">
          65.2847 65.2905 65.2963 65.3019 65.3064 65.2995 65.1689 63.6599 45.206 3.67508 2.54799 1.4616
          1.29165 0.883704 1.16255 1.2368 1.19565 1.16968 1.17947 1.18494 1.18394 1.1844 1.1851 1.1856
          1.18624 1.18733 1.19059 1.20429 1.26002 1.45605 2.0199 3.28897 5.49139 8.53296 12.0871 15.8179
          19.4924 22.9825 26.2324 29.2272 31.9737 34.4884 36.7915 38.9037 40.8447 42.633 44.285 45.8156
          47.2384 48.5654 49.8077 50.9752 52.0766 53.1194 54.1092 55.0496 55.9417 56.7838 57.5719 58.3004
          58.9634 59.5558 60.0748 60.5208 60.8969 61.2095 61.4668 61.6785 61.8547 62.0055 62.1403 62.2681
          62.3973 62.5362 62.6932 62.8771 63.0971 63.362 63.6786 64.05 64.4737 64.9396 65.4313 65.9271
          66.4044 66.8424 67.2259 67.5465 67.8028 67.9991 68.1435 68.246 68.3165 68.364 68.3956 68.4168
          68.4316 68.4424 68.4511 68.4574
        </DataArray>
        <DataArray type="Float32" Name="sat[0]" NumberOfComponents="1" format="ascii">
          0 2.38057e-08 3.1246e-07 2.69977e-06 2.11641e-05 0.000192677 0.00202079 0.0253046 0.308743 0.943872 0.961131 0.977729
          0.980341 0.986565 0.982346 0.98124 0.981885 0.982298 0.98217 0.982108 0.982143 0.982156 0.982166 0.982178
          0.982189 0.982191 0.982157 0.981948 0.981032 0.977762 0.968328 0.947099 0.910297 0.859549 0.800353 0.738331
          0.677369 0.619585 0.565895 0.516529 0.47136 0.430102 0.392408 0.357928 0.326327 0.297301 0.270573 0.245896
          0.223051 0.201839 0.182085 0.163629 0.146333 0.13008 0.114778 0.100369 0.0868293 0.0741737 0.0624518 0.0517352
          0.0421004 0.0336097 0.0262943 0.0201437 0.0151036 0.0110807 0.00795393 0.00558699 0.00384121 0.00258589 0.00170528 0.00110213
          0.000698466 0.000434278 0.000265055 0.000158885 9.35922e-05 5.42021e-05 3.08742e-05 1.73033e-05 9.54391e-06 5.1816e-06 2.76947e-06 1.45735e-06
          7.551e-07 3.85261e-07 1.9358e-07 9.5801e-08 4.67026e-08 2.24304e-08 1.06153e-08 4.95108e-09 2.27628e-09 1.03181e-09 4.61221e-10 2.03353e-10
          8.84553e-11 3.79684e-11 1.60858e-11 1.13949e-11
        </DataArray>
        <DataArray type="Float32" Name="sat[1]" NumberOfComponents="1" format="ascii">
          0 0 2.63961e-18 0 0 5.90391e-18 0 0 1.6794e-17 0 0 7.25368e-18
          9.9518e-19 2.28528e-18 2.57629e-18 0 0 0 1.24524e-18 0 4.48487e-19 0 2.91327e-08 2.39299e-07
          1.63526e-06 9.91837e-06 5.54273e-05 0.000276324 0.00120168 0.00447521 0.0138912 0.0350479 0.0716662 0.122064 0.180723 0.242022
          0.302095 0.358835 0.411333 0.459359 0.503032 0.542629 0.578476 0.610907 0.640228 0.666715 0.690609 0.712116
          0.73141 0.748639 0.763925 0.777371 0.789064 0.799079 0.807487 0.814358 0.819767 0.823799 0.826547 0.828113
          0.828601 0.828106 0.826714 0.824494 0.821489 0.817718 0.813168 0.807791 0.801494 0.79413 0.785484 0.775257
          0.763037 0.748276 0.730267 0.708141 0.680903 0.647548 0.607261 0.559694 0.505245 0.445229 0.381842 0.317894
          0.256378 0.199985 0.150713 0.109657 0.0770011 0.0521783 0.034125 0.0215464 0.0131396 0.0077432 0.00441213 0.00243243
          0.00129832 0.000671373 0.000336572 0.000303888
        </DataArray>
        <DataArray type="Float32" Name="sat[2]" NumberOfComponents="1" format="ascii">
          1 1 1 0.999997 0.999979 0.999807 0.997979 0.974695 0.691257 0.056128 0.0388691 0.0222709
          0.0196588 0.0134347 0.0176537 0.0187599 0.0181152 0.0177016 0.0178297 0.0178921 0.0178568 0.0178436 0.0178342 0.0178213
          0.0178097 0.0177987 0.0177872 0.0177759 0.0177664 0.017763 0.0177804 0.017853 0.0180369 0.0183862 0.0189247 0.0196469
          0.0205365 0.0215803 0.0227719 0.024112 0.0256074 0.0272698 0.0291155 0.0311655 0.033445 0.0359842 0.0388183 0.0419878
          0.0455386 0.0495213 0.0539902 0.0590005 0.0646039 0.0708417 0.0777349 0.0852731 0.0934039 0.102028 0.111001 0.120151
          0.129299 0.138284 0.146991 0.155363 0.163408 0.171202 0.178878 0.186622 0.194665 0.203284 0.21281 0.223641
          0.236264 0.25129 0.269467 0.2917 0.319003 0.352398 0.392709 0.440289 0.494745 0.554766 0.618155 0.682104
          0.743621 0.800015 0.849287 0.890343 0.922999 0.947822 0.965875 0.978454 0.98686 0.992257 0.995588 0.997568
          0.998702 0.999329 0.999663 0.999696
        </DataArray>
        <DataArray type="Float32" Name="massFrac[0]" NumberOfComponents="1" format="ascii">
          0 4.9733e-07 6.52704e-06 5.63882e-05 0.000441838 0.00400847 0.0405676 0.351494 0.903051 0.997154 0.99806 0.998905
          0.999035 0.999344 0.999133 0.999077 0.999108 0.999128 0.99912 0.999116 0.999117 0.999117 0.999116 0.999116
          0.999114 0.999106 0.999065 0.998869 0.998049 0.995145 0.98678 0.967904 0.934971 0.889082 0.83482 0.777084
          0.71942 0.663898 0.611539 0.562723 0.517482 0.47567 0.437058 0.401389 0.368403 0.337852 0.309504 0.283147
          0.258583 0.23563 0.214119 0.193895 0.174813 0.156747 0.139592 0.123273 0.107757 0.0930569 0.079233 0.0663855
          0.0546357 0.0441016 0.0348727 0.0269898 0.0204352 0.0151339 0.0109637 0.0077725 0.00539504 0.00366923 0.00244723 0.00160228
          0.00103105 0.000652989 0.000407705 0.000251463 0.000153577 9.31332e-05 5.62498e-05 3.39414e-05 2.05211e-05 1.24622e-05 7.61416e-06 4.68289e-06
          2.89657e-06 1.79713e-06 1.11309e-06 6.83326e-07 4.11905e-07 2.41189e-07 1.35785e-07 7.29702e-08 3.73463e-08 1.82546e-08 8.57416e-09 3.89786e-09
          1.72617e-09 7.48394e-10 3.18767e-10 2.25909e-10
        </DataArray>
        <DataArray type="Float32" Name="massFrac[1]" NumberOfComponents="1" format="ascii">
          0 0 4.56471e-17 0 0 1.0168e-16 0 0 4.06634e-17 0 0 6.13427e-18
          8.39444e-19 1.91603e-18 2.16878e-18 0 0 0 1.04834e-18 0 3.77557e-19 0 2.45233e-08 2.01429e-07
          1.37642e-06 8.3481e-06 4.66505e-05 0.000232566 0.00101147 0.00376835 0.0117114 0.0296319 0.0608945 0.104447 0.155938 0.210711
          0.265404 0.318049 0.36768 0.413935 0.456784 0.496367 0.532901 0.566627 0.597793 0.62663 0.653358 0.678176
          0.701269 0.722805 0.742941 0.761821 0.779577 0.796326 0.812163 0.827159 0.841345 0.854715 0.867217 0.878769
          0.889265 0.898606 0.906715 0.91356 0.919158 0.923576 0.92692 0.92932 0.930912 0.931827 0.932173 0.932029
          0.93144 0.930409 0.928892 0.92679 0.923938 0.920088 0.914887 0.907855 0.898343 0.885481 0.868105 0.844684
          0.813245 0.771404 0.716603 0.646776 0.561578 0.463944 0.360952 0.262588 0.178261 0.113278 0.0678239 0.0385537
          0.0209504 0.0109426 0.00551514 0.00498177
        </DataArray>
        <DataArray type="Float32" Name="massFrac[2]" NumberOfComponents="1" format="ascii">
          1 1 0.999993 0.999944 0.999558 0.995992 0.959432 0.648506 0.0969486 0.0028465 0.0019398 0.00109476
          0.000965007 0.000656267 0.000866871 0.000923222 0.00089195 0.000872224 0.000879637 0.000883767 0.000882989 0.000883318 0.000883839 0.000884194
          0.000884659 0.000885465 0.000887891 0.000898124 0.000939787 0.00108646 0.00150906 0.00246417 0.00413488 0.00647038 0.00924248 0.0122045
          0.0151766 0.0180531 0.0207817 0.0233424 0.0257334 0.0279622 0.030041 0.0319837 0.0338047 0.0355181 0.0371377 0.0386769
          0.0401486 0.0415654 0.0429399 0.0442842 0.0456098 0.0469273 0.0482451 0.0495684 0.0508978 0.0522284 0.0535496 0.0548459
          0.0560994 0.0572927 0.0584121 0.0594499 0.0604064 0.06129 0.0621163 0.0629079 0.0636926 0.0645035 0.0653798 0.0663685
          0.0675289 0.0689381 0.0707003 0.0729581 0.0759081 0.0798193 0.0850568 0.0921107 0.101636 0.114507 0.131887 0.155312
          0.186752 0.228594 0.283396 0.353224 0.438422 0.536056 0.639048 0.737412 0.821739 0.886722 0.932176 0.961446
          0.97905 0.989057 0.994485 0.995018
        </DataArray>
        <DataArray type="Float32" Name="total fl. vol." NumberOfComponents="1" format="ascii">
          1 1 1 1 0.999998 0.999975 0.999707 0.99967 0.999903 0.999979 1 1.00001
          1.00001 1.00001 1 1.00001 1.00001 1.00001 1.00001 1.00001 1.00001 1.00001 1.00001 1.00001
          1.00001 1 1 1.00001 1.00001 1.00001 1.00002 1.00003 1.00005 1.00006 1.00007 1.00008
          1.00008 1.00008 1.00007 1.00007 1.00006 1.00005 1.00005 1.00004 1.00004 1.00003 1.00003 1.00002
          1.00002 1.00001 1.00001 1.00001 1.00001 1.00001 1.00001 1.00001 1.00001 1.00001 1.00001 1.00001
          1 1 1 1 1 0.999999 0.999998 0.999997 0.999996 0.999996 0.999995 0.999995
          0.999994 0.999994 0.999993 0.999993 0.999992 0.999992 0.999992 0.999992 0.999992 0.999992 0.999993 0.999993
          0.999994 0.999995 0.999996 0.999997 0.999998 0.999998 0.999999 0.999999 1 1 1 1
          1 1 1 1
        </DataArray>
      </CellData>
      <Points>
        <DataArray type="Float32" Name="Coordinates" NumberOfComponents="3" format="ascii">
          0 0 0 1 0 0 0 1 0 1 1 0
          0 0 1 1 0 1 0 1 1 1 1 1
          0 0 2 1 0 2 0 1 2 1 1 2
          0 0 3 1 0 3 0 1 3 1 1 3
          0 0 4 1 0 4 0 1 4 1 1 4
          0 0 5 1 0 5 0 1 5 1 1 5
          0 0 6 1 0 6 0 1 6 1 1 6
          0 0 7 1 0 7 0 1 7 1 1 7
          0 0 8 1 0 8 0 1 8 1 1 8
          0 0 9 1 0 9 0 1 9 1 1 9
          0 0 10 1 0 10 0 1 10 1 1 10
          0 0 11 1 0 11 0 1 11 1 1 11
          0 0 12 1 0 12 0 1 12 1 1 12
          0 0 13 1 0 13 0 1 13 1 1 13
          0 0 14 1 0 14 0 1 14 1 1 14
          0 0 15 1 0 15 0 1 15 1 1 15
          0 0 16 1 0 16 0 1 16 1 1 16
          0 0 17 1 0 17 0 1 17 1 1 17
          0 0 18 1 0 18 0 1 18 1 1 18
          0 0 19 1 0 19 0 1 19 1 1 19
          0 0 20 1 0 20 0 1 20 1 1 20
          0 0 21 1 0 21 0 1 21 1 1 21
          0 0 22 1 0 22 0 1 22 1 1 22
          0 0 23 1 0 23 0 1 23 1 1 23
          0 0 24 1 0 24 0 1 24 1 1 24
          0 0 25 1 0 25 0 1 25 1 1 25
          0 0 26 1 0 26 0 1 26 1 1 26
          0 0 27 1 0 27 0 1 27 1 1 27
          0 0 28 1 0 28 0 1 28 1 1 28
          0 0 29 1 0 29 0 1 29 1 1 29
          0 0 30 1 0 30 0 1 30 1 1 30
          0 0 31 1 0 31 0 1 31 1 1 31
          0 0 32 1 0 32 0 1 32 1 1 32
          0 0 33 1 0 33 0 1 33 1 1 33
          0 0 34 1 0 34 0 1 34 1 1 34
          0 0 35 1 0 35 0 1 35 1 1 35
          0 0 36 1 0 36 0 1 36 1 1 36
          0 0 37 1 0 37 0 1 37 1 1 37
          0 0 38 1 0 38 0 1 38 1 1 38
          0 0 39 1 0 39 0 1 39 1 1 39
          0 0 40 1 0 40 0 1 40 1 1 40
          0 0 41 1 0 41 0 1 41 1 1 41
          0 0 42 1 0 42 0 1 42 1 1 42
          0 0 43 1 0 43 0 1 43 1 1 43
          0 0 44 1 0 44 0 1 44 1 1 44
          0 0 45 1 0 45 0 1 45 1 1 45
          0 0 46 1 0 46 0 1 46 1 1 46
          0 0 47 1 0 47 0 1 47 1 1 47
          0 0 48 1 0 48 0 1 48 1 1 48
          0 0 49 1 0 49 0 1 49 1 1 49
          0 0 50 1 0 50 0 1 50 1 1 50
          0 0 51 1 0 51 0 1 51 1 1 51
          0 0 52 1 0 52 0 1 52 1 1 52
          0 0 53 1 0 53 0 1 53 1 1 53
          0 0 54 1 0 54 0 1 54 1 1 54
          0 0 55 1 0 55 0 1 55 1 1 55
          0 0 56 1 0 56 0 1 56 1 1 56
          0 0 57 1 0 57 0 1 57 1 1 57
          0 0 58 1 0 58 0 1 58 1 1 58
          0 0 59 1 0 59 0 1 59 1 1 59
          0 0 60 1 0 60 0 1 60 1 1 60
          0 0 61 1 0 61 0 1 61 1 1 61
          0 0 62 1 0 62 0 1 62 1 1 62
          0 0 63 1 0 63 0 1 63 1 1 63
          0 0 64 1 0 64 0 1 64 1 1 64
          0 0 65 1 0 65 0 1 65 1 1 65
          0 0 66 1 0 66 0 1 66 1 1 66
          0 0 67 1 0 67 0 1 67 1 1 67
          0 0 68 1 0 68 0 1 68 1 1 68
          0 0 69 1 0 69 0 1 69 1 1 69
          0 0 70 1 0 70 0 1 70 1 1 70
          0 0 71 1 0 71 0 1 71 1 1 71
          0 0 72 1 0 72 0 1 72 1 1 72
          0 0 73 1 0 73 0 1 73 1 1 73
          0 0 74 1 0 74 0 1 74 1 1 74
          0 0 75 1 0 75 0 1 75 1 1 75
          0 0 76 1 0 76 0 1 76 1 1 76
          0 0 77 1 0 77 0 1 77 1 1 77
          0 0 78 1 0 78 0 1 78 1 1 78
          0 0 79 1 0 79 0 1 79 1 1 79
          0 0 80 1 0 80 0 1 80 1 1 80
          0 0 81 1 0 81 0 1 81 1 1 81
          0 0 82 1 0 82 0 1 82 1 1 82
          0 0 83 1 0 83 0 1 83 1 1 83
          0 0 84 1 0 84 0 1 84 1 1 84
          0 0 85 1 0 85 0 1 85 1 1 85
          0 0 86 1 0 86 0 1 86 1 1 86
          0 0 87 1 0 87 0 1 87 1 1 87
          0 0 88 1 0 88 0 1 88 1 1 88
          0 0 89 1 0 89 0 1 89 1 1 89
          0 0 90 1 0 90 0 1 90 1 1 90
          0 0 91 1 0 91 0 1 91 1 1 91
          0 0 92 1 0 92 0 1 92 1 1 92
          0 0 93 1 0 93 0 1 93 1 1 93
          0 0 94 1 0 94 0 1 94 1 1 94
          0 0 95 1 0 95 0 1 95 1 1 95
          0 0 96 1 0 96 0 1 96 1 1 96
          0 0 97 1 0 97 0 1 97 1 1 97
          0 0 98 1 0 98 0 1 98 1 1 98
          0 0 99 1 0 99 0 1 99 1 1 99
          0 0 100 1 0 100 0 1 100 1 1 100
        </DataArray>
      </Points>
      <Cells>
        <DataArray type="Int32" Name="connectivity" NumberOfComponents="1" format="ascii">
          0 1 3 2 4 5 7 6 4 5 7 6
          8 9 11 10 8 9 11 10 12 13 15 14
          12 13 15 14 16 17 19 18 16 17 19 18
          20 21 23 22 20 21 23 22 24 25 27 26
          24 25 27 26 28 29 31 30 28 29 31 30
          32 33 35 34 32 33 35 34 36 37 39 38
          36 37 39 38 40 41 43 42 40 41 43 42
          44 45 47 46 44 45 47 46 48 49 51 50
          48 49 51 50 52 53 55 54 52 53 55 54
          56 57 59 58 56 57 59 58 60 61 63 62
          60 61 63 62 64 65 67 66 64 65 67 66
          68 69 71 70 68 69 71 70 72 73 75 74
          72 73 75 74 76 77 79 78 76 77 79 78
          80 81 83 82 80 81 83 82 84 85 87 86
          84 85 87 86 88 89 91 90 88 89 91 90
          92 93 95 94 92 93 95 94 96 97 99 98
          96 97 99 98 100 101 103 102 100 101 103 102
          104 105 107 106 104 105 107 106 108 109 111 110
          108 109 111 110 112 113 115 114 112 113 115 114
          116 117 119 118 116 117 119 118 120 121 123 122
          120 121 123 122 124 125 127 126 124 125 127 126
          128 129 131 130 128 129 131 130 132 133 135 134
          132 133 135 134 136 137 139 138 136 137 139 138
          140 141 143 142 140 141 143 142 144 145 147 146
          144 145 147 146 148 149 151 150 148 149 151 150
          152 153 155 154 152 153 155 154 156 157 159 158
          156 157 159 158 160 161 163 162 160 161 163 162
          164 165 167 166 164 165 167 166 168 169 171 170
          168 169 171 170 172 173 175 174 172 173 175 174
          176 177 179 178 176 177 179 178 180 181 183 182
          180 181 183 182 184 185 187 186 184 185 187 186
          188 189 191 190 188 189 191 190 192 193 195 194
          192 193 195 194 196 197 199 198 196 197 199 198
          200 201 203 202 200 201 203 202 204 205 207 206
          204 205 207 206 208 209 211 210 208 209 211 210
          212 213 215 214 212 213 215 214 216 217 219 218
          216 217 219 218 220 221 223 222 220 221 223 222
          224 225 227 226 224 225 227 226 228 229 231 230
          228 229 231 230 232 233 235 234 232 233 235 234
          236 237 239 238 236 237 239 238 240 241 243 242
          240 241 243 242 244 245 247 246 244 245 247 246
          248 249 251 250 248 249 251 250 252 253 255 254
          252 253 255 254 256 257 259 258 256 257 259 258
          260 261 263 262 260 261 263 262 264 265 267 266
          264 265 267 266 268 269 271 270 268 269 271 270
          272 273 275 274 272 273 275 274 276 277 279 278
          276 277 279 278 280 281 283 282 280 281 283 282
          284 285 287 286 284 285 287 286 288 289 291 290
          288 289 291 290 292 293 295 294 292 293 295 294
          296 297 299 298 296 297 299 298 300 301 303 302
          300 301 303 302 304 305 307 306 304 305 307 306
          308 309 311 310 308 309 311 310 312 313 315 314
          312 313 315 314 316 317 319 318 316 317 319 318
          320 321 323 322 320 321 323 322 324 325 327 326
          324 325 327 326 328 329 331 330 328 329 331 330
          332 333 335 334 332 333 335 334 336 337 339 338
          336 337 339 338 340 341 343 342 340 341 343 342
          344 345 347 346 344 345 347 346 348 349 351 350
          348 349 351 350 352 353 355 354 352 353 355 354
          356 357 359 358 356 357 359 358 360 361 363 362
          360 361 363 362 364 365 367 366 364 365 367 366
          368 369 371 370 368 369 371 370 372 373 375 374
          372 373 375 374 376 377 379 378 376 377 379 378
          380 381 383 382 380 381 383 382 384 385 387 386
          384 385 387 386 388 389 391 390 388 389 391 390
          392 393 395 394 392 393 395 394 396 397 399 398
          396 397 399 398 400 401 403 402
        </DataArray>
        <DataArray type="Int32" Name="offsets" NumberOfComponents="1" format="ascii">
          8 16 24 32 40 48 56 64 72 80 88 96
          104 112 120 128 136 144 152 160 168 176 184 192
          200 208 216 224 232 240 248 256 264 272 280 288
          296 304 312 320 328 336 344 352 360 368 376 384
          392 400 408 416 424 432 440 448 456 464 472 480
          488 496 504 512 520 528 536 544 552 560 568 576
          584 592 600 608 616 624 632 640 648 656 664 672
          680 688 696 704 712 720 728 736 744 752 760 768
          776 784 792 800
        </DataArray>
        <DataArray type="UInt8" Name="types" NumberOfComponents="1" format="ascii">
          12 12 12 12 12 12 12 12 12 12 12 12
          12 12 12 12 12 12 12 12 12 12 12 12
          12 12 12 12 12 12 12 12 12 12 12 12
          12 12 12 12 12 12 12 12 12 12 12 12
          12 12 12 12 12 12 12 12 12 12 12 12
          12 12 12 12 12 12 12 12 12 12 12 12
          12 12 12 12 12 12 12 12 12 12 12 12
          12 12 12 12 12 12 12 12 12 12 12 12
          12 12 12 12
        </DataArray>
      </Cells>
    </Piece>
  </UnstructuredGrid>
</VTKFile>
