<?xml version="1.0"?>
<VTKFile type="UnstructuredGrid" version="0.1" byte_order="LittleEndian">
  <UnstructuredGrid>
    <Piece NumberOfCells="100" NumberOfPoints="404">
      <CellData Scalars="pressure[0]">
        <DataArray type="Float32" Name="pressure[0]" NumberOfComponents="1" format="ascii">
          7.72375e+06 7.73393e+06 7.74411e+06 7.75428e+06 7.76446e+06 7.77464e+06 7.78482e+06 7.795e+06 7.80518e+06 7.81536e+06 7.82554e+06 7.83572e+06
          7.8459e+06 7.85608e+06 7.86626e+06 7.87644e+06 7.88662e+06 7.8968e+06 7.90698e+06 7.91715e+06 7.92733e+06 7.93751e+06 7.94769e+06 7.95787e+06
          7.96805e+06 7.97823e+06 7.98841e+06 7.99859e+06 8.00877e+06 8.01895e+06 8.02912e+06 8.03927e+06 8.04927e+06 8.05857e+06 8.06754e+06 8.07637e+06
          8.08513e+06 8.09387e+06 8.10261e+06 8.11134e+06 8.12006e+06 8.12879e+06 8.1375e+06 8.14622e+06 8.15493e+06 8.16364e+06 8.17234e+06 8.18104e+06
          8.18974e+06 8.19843e+06 8.20712e+06 8.21581e+06 8.22449e+06 8.23317e+06 8.24186e+06 8.24454e+06 8.24734e+06 8.24999e+06 8.25249e+06 8.25484e+06
          8.25707e+06 8.25916e+06 8.26113e+06 8.26296e+06 8.26464e+06 8.26616e+06 8.26749e+06 8.26863e+06 8.26963e+06 8.27054e+06 8.2714e+06 8.27224e+06
          8.27307e+06 8.27389e+06 8.27471e+06 8.27552e+06 8.27633e+06 8.27714e+06 8.27794e+06 8.27874e+06 8.27954e+06 8.28033e+06 8.28112e+06 8.28191e+06
          8.2827e+06 8.28348e+06 8.28425e+06 8.28503e+06 8.2858e+06 8.28657e+06 8.28733e+06 8.2881e+06 8.28886e+06 8.28961e+06 8.29036e+06 8.29111e+06
          8.29186e+06 8.2926e+06 8.29334e+06 8.29408e+06
        </DataArray>
        <DataArray type="Float32" Name="pressure[1]" NumberOfComponents="1" format="ascii">
          7.72375e+06 7.73393e+06 7.74411e+06 7.75428e+06 7.76446e+06 7.77464e+06 7.78482e+06 7.795e+06 7.80518e+06 7.81536e+06 7.82554e+06 7.83572e+06
          7.8459e+06 7.85608e+06 7.86626e+06 7.87644e+06 7.88662e+06 7.8968e+06 7.90698e+06 7.91715e+06 7.92733e+06 7.93751e+06 7.94769e+06 7.95787e+06
          7.96805e+06 7.97823e+06 7.98841e+06 7.99859e+06 8.00877e+06 8.01895e+06 8.02912e+06 8.03927e+06 8.04927e+06 8.05857e+06 8.06754e+06 8.07637e+06
          8.08513e+06 8.09387e+06 8.10261e+06 8.11134e+06 8.12006e+06 8.12879e+06 8.1375e+06 8.14622e+06 8.15493e+06 8.16364e+06 8.17234e+06 8.18104e+06
          8.18974e+06 8.19843e+06 8.20712e+06 8.21581e+06 8.22449e+06 8.23317e+06 8.24186e+06 8.24454e+06 8.24734e+06 8.24999e+06 8.25249e+06 8.25484e+06
          8.25707e+06 8.25916e+06 8.26113e+06 8.26296e+06 8.26464e+06 8.26616e+06 8.26749e+06 8.26863e+06 8.26963e+06 8.27054e+06 8.2714e+06 8.27224e+06
          8.27307e+06 8.27389e+06 8.27471e+06 8.27552e+06 8.27633e+06 8.27714e+06 8.27794e+06 8.27874e+06 8.27954e+06 8.28033e+06 8.28112e+06 8.28191e+06
          8.2827e+06 8.28348e+06 8.28425e+06 8.28503e+06 8.2858e+06 8.28657e+06 8.28733e+06 8.2881e+06 8.28886e+06 8.28961e+06 8.29036e+06 8.29111e+06
          8.29186e+06 8.2926e+06 8.29334e+06 8.29408e+06
        </DataArray>
        <DataArray type="Float32" Name="pressure[2]" NumberOfComponents="1" format="ascii">
          7.72375e+06 7.73393e+06 7.74411e+06 7.75428e+06 7.76446e+06 7.77464e+06 7.78482e+06 7.795e+06 7.80518e+06 7.81536e+06 7.82554e+06 7.83572e+06
          7.8459e+06 7.85608e+06 7.86626e+06 7.87644e+06 7.88662e+06 7.8968e+06 7.90698e+06 7.91715e+06 7.92733e+06 7.93751e+06 7.94769e+06 7.95787e+06
          7.96805e+06 7.97823e+06 7.98841e+06 7.99859e+06 8.00877e+06 8.01895e+06 8.02912e+06 8.03927e+06 8.04927e+06 8.05857e+06 8.06754e+06 8.07637e+06
          8.08513e+06 8.09387e+06 8.10261e+06 8.11134e+06 8.12006e+06 8.12879e+06 8.1375e+06 8.14622e+06 8.15493e+06 8.16364e+06 8.17234e+06 8.18104e+06
          8.18974e+06 8.19843e+06 8.20712e+06 8.21581e+06 8.22449e+06 8.23317e+06 8.24186e+06 8.24454e+06 8.24734e+06 8.24999e+06 8.25249e+06 8.25484e+06
          8.25707e+06 8.25916e+06 8.26113e+06 8.26296e+06 8.26464e+06 8.26616e+06 8.26749e+06 8.26863e+06 8.26963e+06 8.27054e+06 8.2714e+06 8.27224e+06
          8.27307e+06 8.27389e+06 8.27471e+06 8.27552e+06 8.27633e+06 8.27714e+06 8.27794e+06 8.27874e+06 8.27954e+06 8.28033e+06 8.28112e+06 8.28191e+06
          8.2827e+06 8.28348e+06 8.28425e+06 8.28503e+06 8.2858e+06 8.28657e+06 8.28733e+06 8.2881e+06 8.28886e+06 8.28961e+06 8.29036e+06 8.29111e+06
          8.29186e+06 8.2926e+06 8.29334e+06 8.29408e+06
        </DataArray>
        <DataArray type="Float32" Name="velocity[0]" NumberOfComponents="1" format="ascii">
          0 0 0 0 0 0 0 0 0 0 0 0
          0 0 0 0 0 0 0 0 0 0 0 0
          0 0 0 0 0 0 0 0 0 0 0 0
          0 0 0 0 0 0 0 0 0 0 0 0
          0 0 0 0 0 0 0 0 0 0 0 0
          0 0 0 0 0 0 0 0 0 0 0 0
          0 0 0 0 0 0 0 0 0 0 0 0
          0 0 0 0 0 0 0 0 0 0 0 0
          0 0 0 0
        </DataArray>
        <DataArray type="Float32" Name="velocity[1]" NumberOfComponents="1" format="ascii">
          0 0 0 0 0 0 0 0 0 0 0 0
          0 0 0 0 0 0 0 0 0 0 0 0
          0 0 0 0 0 0 0 0 0 0 0 0
          0 0 0 0 0 0 0 0 0 0 0 0
          0 0 0 0 0 0 0 0 0 0 0 0
          0 0 0 0 0 0 0 0 0 0 0 0
          0 0 0 0 0 0 0 0 0 0 0 0
          0 0 0 0 0 0 0 0 0 0 0 0
          0 0 0 0
        </DataArray>
        <DataArray type="Float32" Name="velocity[2]" NumberOfComponents="1" format="ascii">
          1.9541e-19 1.14893e-19 1.14341e-19 2.07727e-19 2.08094e-19 2.97619e-19 1.14709e-19 1.14709e-19 3.91371e-19 4.84205e-19 3.88798e-19 4.79058e-19
          4.84389e-19 2.08646e-19 1.114e-19 2.10484e-19 2.12138e-19 2.95045e-19 2.98722e-19 2.64713e-20 -1.72799e-19 -2.02763e-19 -2.72067e-20 1.55887e-19
          4.89352e-19 6.41654e-18 1.07137e-16 1.56929e-15 1.96457e-14 2.04962e-13 1.72641e-12 1.1326e-11 5.62989e-11 2.10005e-10 4.63116e-10 7.42619e-10
          1.03215e-09 1.32557e-09 1.62068e-09 1.91688e-09 2.21414e-09 2.51258e-09 2.81235e-09 3.11361e-09 3.41652e-09 3.72124e-09 4.02793e-09 4.33676e-09
          4.64789e-09 4.96149e-09 5.27773e-09 5.59678e-09 5.91879e-09 6.13909e-09 -3.15516e-07 -8.05275e-07 -9.62767e-07 -9.41803e-07 -9.21097e-07 -9.00593e-07
          -8.80246e-07 -8.60018e-07 -8.39874e-07 -8.19782e-07 -7.99703e-07 -7.79588e-07 -7.59353e-07 -7.38844e-07 -7.17869e-07 -6.96315e-07 -6.74219e-07 -6.5173e-07
          -6.2901e-07 -6.06179e-07 -5.83303e-07 -5.60414e-07 -5.37524e-07 -5.14636e-07 -4.9175e-07 -4.68867e-07 -4.45986e-07 -4.23106e-07 -4.00229e-07 -3.77352e-07
          -3.54477e-07 -3.31603e-07 -3.08729e-07 -2.85856e-07 -2.62983e-07 -2.40111e-07 -2.17239e-07 -1.94367e-07 -1.71497e-07 -1.48627e-07 -1.25758e-07 -1.0289e-07
          -8.00227e-08 -5.71571e-08 -3.42931e-08 -1.14307e-08
        </DataArray>
        <DataArray type="Float32" Name="z[0]" NumberOfComponents="1" format="ascii">
          1 1 1 1 1 1 1 1 1 1 1 1
          1 1 1 1 1 1 1 1 1 1 1 1
          1 1 0.999999 0.99999 0.999882 0.998824 0.990645 0.943409 0.74936 0.20697 0.0753545 0.0257196
          0.00753739 0.00184821 0.000381046 6.71878e-05 1.03184e-05 1.40194e-06 1.70668e-07 1.88085e-08 1.89242e-09 1.75075e-10 1.49828e-11 1.19226e-12
          8.86159e-14 6.1763e-15 4.05072e-16 2.50765e-17 1.4694e-18 8.17136e-20 3.82191e-21 6.43477e-22 6.44856e-23 5.77506e-24 6.46332e-25 7.52027e-26
          8.38145e-27 9.13793e-28 1.00942e-28 1.14143e-29 1.30422e-30 1.48731e-31 1.69505e-32 1.9484e-33 2.26444e-34 2.63748e-35 3.0333e-36 3.39899e-37
          3.68161e-38 3.8454e-39 3.87996e-40 3.79752e-41 3.62236e-42 3.37713e-43 3.08286e-44 2.8026e-45 0 0 0 0
          0 0 0 0 0 0 0 0 0 0 0 0
          0 0 0 0
        </DataArray>
        <DataArray type="Float32" Name="z[1]" NumberOfComponents="1" format="ascii">
          0 0 0 0 0 0 0 0 0 0 0 0
          0 0 0 0 0 0 6.35079e-18 2.12423e-16 6.35686e-15 1.78278e-13 4.5743e-12 1.06567e-10
          2.23558e-09 4.18078e-08 6.88375e-07 9.82304e-06 0.000119006 0.00119049 0.00947207 0.0572986 0.25378 0.802976 0.936255 0.986527
          1.00495 1.01073 1.01222 1.01256 1.01263 1.01265 1.01267 1.01268 1.01269 1.01271 1.01272 1.01273
          1.01275 1.01276 1.01278 1.01279 1.0128 1.01283 0.932432 0.875573 0.867874 0.86102 0.853171 0.844678
          0.835586 0.825224 0.812663 0.796506 0.774157 0.740181 0.682282 0.580656 0.435372 0.28061 0.154888 0.0737031
          0.0305478 0.011149 0.00362022 0.00105558 0.000278631 6.70526e-05 1.48015e-05 3.01314e-06 5.68309e-07 9.97226e-08 1.63394e-08 2.50803e-09
          3.61706e-10 4.9142e-11 6.30472e-12 7.65482e-13 8.81528e-14 9.63584e-15 1.01884e-15 1.13325e-16 2.20761e-18 0 0 0
          0 0 0 0
        </DataArray>
        <DataArray type="Float32" Name="z[2]" NumberOfComponents="1" format="ascii">
          0 0 0 0 0 0 0 0 0 0 0 0
          0 0 0 0 0 0 0 0 0 0 0 0
          0 0 0 0 0 0 0 0 0 0 0 0
          0 0 0 0 0 0 0 0 0 0 0 0
          0 0 0 0 0 0.000457677 14.7738 84.8369 86.6936 86.8073 86.9323 87.064
          87.2022 87.3553 87.5351 87.7595 88.0615 88.5101 89.2621 90.5701 92.4339 94.4183 96.0322 97.0779
          97.6383 97.8956 98.0014 98.0437 98.0632 98.0754 98.0856 98.0952 98.1047 98.1141 98.1234 98.1327
          98.142 98.1512 98.1604 98.1696 98.1787 98.1878 98.1968 98.2058 98.2148 98.2237 98.2326 98.2415
          98.2503 98.2591 98.2678 98.2765
        </DataArray>
        <DataArray type="Float32" Name="sat[0]" NumberOfComponents="1" format="ascii">
          1 1 1 1 1 1 1 1 1 1 1 1
          1 1 1 1 1 1 1 1 1 1 1 1
          1 1 0.999999 0.99999 0.999882 0.998824 0.990645 0.943409 0.74936 0.20697 0.0753545 0.0257196
          0.00753739 0.00184821 0.000381046 6.71878e-05 1.03184e-05 1.40194e-06 1.70668e-07 1.88085e-08 1.89242e-09 1.75075e-10 1.49828e-11 1.19226e-12
          8.86159e-14 6.1763e-15 4.05072e-16 2.50765e-17 1.4694e-18 8.17124e-20 4.11598e-21 6.55085e-22 6.44857e-23 5.77507e-24 6.46333e-25 7.52029e-26
          8.38147e-27 9.13795e-28 1.00942e-28 1.14143e-29 1.30423e-30 1.48732e-31 1.69505e-32 1.94841e-33 2.26444e-34 2.63748e-35 3.03331e-36 3.39899e-37
          3.68162e-38 3.8454e-39 3.87996e-40 3.79752e-41 3.62236e-42 3.37713e-43 3.08286e-44 2.8026e-45 0 0 0 0
          0 0 0 0 0 0 0 0 0 0 0 0
          0 0 0 0
        </DataArray>
        <DataArray type="Float32" Name="sat[1]" NumberOfComponents="1" format="ascii">
          0 0 0 0 0 0 0 0 0 0 0 0
          0 0 0 0 0 0 6.27361e-18 2.09838e-16 6.27941e-15 1.76103e-13 4.51842e-12 1.05264e-10
          2.2082e-09 4.12951e-08 6.79923e-07 9.70228e-06 0.000117541 0.00117581 0.00935518 0.0565905 0.25064 0.79303 0.924646 0.97428
          0.992463 0.998152 0.999619 0.999933 0.99999 0.999999 1 1 1 1 1 1
          1 1 1 1 1 1 1 0.925119 0.900749 0.893646 0.885509 0.876703
          0.867275 0.856528 0.843498 0.826735 0.803544 0.768283 0.70819 0.602708 0.451908 0.29127 0.160772 0.0765032
          0.0317085 0.0115727 0.0037578 0.0010957 0.000289222 6.96016e-05 1.53643e-05 3.1277e-06 5.89919e-07 1.03515e-07 1.69609e-08 2.60343e-09
          3.75466e-10 5.10116e-11 6.5446e-12 7.9461e-13 9.15074e-14 1.00026e-14 1.05762e-15 1.17639e-16 2.29165e-18 0 0 0
          0 0 0 0
        </DataArray>
        <DataArray type="Float32" Name="sat[2]" NumberOfComponents="1" format="ascii">
          0 0 0 0 0 0 0 0 0 0 0 0
          0 0 0 0 0 0 0 0 0 0 0 0
          0 0 0 0 0 0 0 0 0 0 0 0
          0 0 0 0 0 0 0 0 0 0 0 0
          0 0 0 0 0 0 0 0.0748806 0.0992511 0.106354 0.114491 0.123297
          0.132725 0.143472 0.156502 0.173265 0.196456 0.231717 0.29181 0.397292 0.548092 0.70873 0.839228 0.923497
          0.968292 0.988427 0.996242 0.998904 0.999711 0.99993 0.999985 0.999997 0.999999 1 1 1
          1 1 1 1 1 1 1 1 1 1 1 1
          1 1 1 1
        </DataArray>
        <DataArray type="Float32" Name="massFrac[0]" NumberOfComponents="1" format="ascii">
          1 1 1 1 1 1 1 1 1 1 1 1
          1 1 1 1 1 1 1 1 1 1 1 1
          1 1 0.999999 0.999992 0.999899 0.998989 0.991948 0.950967 0.776697 0.232904 0.0865965 0.0297949
          0.00875748 0.00214935 0.000443231 7.81556e-05 1.20027e-05 1.63077e-06 1.98523e-07 2.18779e-08 2.20122e-09 2.0364e-10 1.74271e-11 1.38675e-12
          1.0307e-13 7.18363e-15 4.71131e-16 2.91656e-17 1.70898e-18 9.50342e-20 4.76304e-21 7.98848e-22 8.05736e-23 7.26791e-24 8.20193e-25 9.63012e-26
          1.08386e-26 1.19511e-27 1.33861e-28 1.54138e-29 1.80697e-30 2.14539e-31 2.62938e-32 3.48338e-33 5.17737e-34 8.57875e-35 1.50241e-35 2.54147e-36
          3.7754e-37 4.73361e-38 5.17865e-39 5.21806e-40 5.02253e-41 4.69996e-42 4.30199e-43 3.92364e-44 2.8026e-45 0 0 0
          0 0 0 0 0 0 0 0 0 0 0 0
          0 0 0 0
        </DataArray>
        <DataArray type="Float32" Name="massFrac[1]" NumberOfComponents="1" format="ascii">
          0 0 0 0 0 0 0 0 0 0 0 0
          0 0 0 0 0 0 5.39144e-18 1.80334e-16 5.3966e-15 1.51347e-13 3.88331e-12 9.0469e-11
          1.89787e-09 3.54923e-08 5.8439e-07 8.33918e-06 0.00010103 0.00101082 0.0080518 0.0490327 0.223303 0.767096 0.913404 0.970205
          0.991243 0.997851 0.999557 0.999922 0.999988 0.999998 1 1 1 1 1 1
          1 1 1 1 1 1 0.986502 0.922785 0.920585 0.919907 0.919122 0.918262
          0.917326 0.91624 0.914895 0.913116 0.910552 0.906398 0.898486 0.881288 0.845059 0.774847 0.65128 0.46784
          0.265939 0.116511 0.0410205 0.0123134 0.00327934 0.000791045 0.000174709 3.55669e-05 6.70782e-06 1.17693e-06 1.92821e-07 2.95944e-08
          4.26767e-09 5.79759e-10 7.43737e-11 9.02918e-12 1.0397e-12 1.13638e-13 1.20143e-14 1.33622e-15 2.60276e-17 0 0 0
          0 0 0 0
        </DataArray>
        <DataArray type="Float32" Name="massFrac[2]" NumberOfComponents="1" format="ascii">
          0 0 0 0 0 0 0 0 0 0 0 0
          0 0 0 0 0 0 0 0 0 0 0 0
          0 0 0 0 0 0 0 0 0 0 0 0
          0 0 0 0 0 0 0 0 0 0 0 0
          0 0 0 0 0 3.9024e-07 0.0134984 0.0772152 0.0794153 0.0800934 0.0808777 0.0817381
          0.0826742 0.08376 0.0851047 0.0868843 0.0894482 0.0936018 0.101514 0.118712 0.154941 0.225153 0.34872 0.53216
          0.734061 0.883489 0.958979 0.987687 0.996721 0.999209 0.999825 0.999964 0.999993 0.999999 1 1
          1 1 1 1 1 1 1 1 1 1 1 1
          1 1 1 1
        </DataArray>
        <DataArray type="Float32" Name="total fl. vol." NumberOfComponents="1" format="ascii">
          1 1 1 1 1 1 1 1 1 1 1 1
          1 1 1 1 1 1 1 1 1 1 1 1
          1 1 1 1 1 1 1 1 1 1 1 1
          1 1 1 1 1 1 1 1 1 1 1 1
          1 1 1 1 1 1.00001 0.928556 0.98228 0.999998 0.999998 0.999998 0.999998
          0.999998 0.999998 0.999998 0.999998 0.999998 0.999997 0.999997 0.999997 0.999998 0.999998 0.999999 0.999999
          1 1 1 1 1 1 1 1 1 1 1 1
          1 1 1 1 1 1 1 1 1 1 1 1
          1 1 1 1
        </DataArray>
      </CellData>
      <Points>
        <DataArray type="Float32" Name="Coordinates" NumberOfComponents="3" format="ascii">
          0 0 0 1 0 0 0 1 0 1 1 0
          0 0 1 1 0 1 0 1 1 1 1 1
          0 0 2 1 0 2 0 1 2 1 1 2
          0 0 3 1 0 3 0 1 3 1 1 3
          0 0 4 1 0 4 0 1 4 1 1 4
          0 0 5 1 0 5 0 1 5 1 1 5
          0 0 6 1 0 6 0 1 6 1 1 6
          0 0 7 1 0 7 0 1 7 1 1 7
          0 0 8 1 0 8 0 1 8 1 1 8
          0 0 9 1 0 9 0 1 9 1 1 9
          0 0 10 1 0 10 0 1 10 1 1 10
          0 0 11 1 0 11 0 1 11 1 1 11
          0 0 12 1 0 12 0 1 12 1 1 12
          0 0 13 1 0 13 0 1 13 1 1 13
          0 0 14 1 0 14 0 1 14 1 1 14
          0 0 15 1 0 15 0 1 15 1 1 15
          0 0 16 1 0 16 0 1 16 1 1 16
          0 0 17 1 0 17 0 1 17 1 1 17
          0 0 18 1 0 18 0 1 18 1 1 18
          0 0 19 1 0 19 0 1 19 1 1 19
          0 0 20 1 0 20 0 1 20 1 1 20
          0 0 21 1 0 21 0 1 21 1 1 21
          0 0 22 1 0 22 0 1 22 1 1 22
          0 0 23 1 0 23 0 1 23 1 1 23
          0 0 24 1 0 24 0 1 24 1 1 24
          0 0 25 1 0 25 0 1 25 1 1 25
          0 0 26 1 0 26 0 1 26 1 1 26
          0 0 27 1 0 27 0 1 27 1 1 27
          0 0 28 1 0 28 0 1 28 1 1 28
          0 0 29 1 0 29 0 1 29 1 1 29
          0 0 30 1 0 30 0 1 30 1 1 30
          0 0 31 1 0 31 0 1 31 1 1 31
          0 0 32 1 0 32 0 1 32 1 1 32
          0 0 33 1 0 33 0 1 33 1 1 33
          0 0 34 1 0 34 0 1 34 1 1 34
          0 0 35 1 0 35 0 1 35 1 1 35
          0 0 36 1 0 36 0 1 36 1 1 36
          0 0 37 1 0 37 0 1 37 1 1 37
          0 0 38 1 0 38 0 1 38 1 1 38
          0 0 39 1 0 39 0 1 39 1 1 39
          0 0 40 1 0 40 0 1 40 1 1 40
          0 0 41 1 0 41 0 1 41 1 1 41
          0 0 42 1 0 42 0 1 42 1 1 42
          0 0 43 1 0 43 0 1 43 1 1 43
          0 0 44 1 0 44 0 1 44 1 1 44
          0 0 45 1 0 45 0 1 45 1 1 45
          0 0 46 1 0 46 0 1 46 1 1 46
          0 0 47 1 0 47 0 1 47 1 1 47
          0 0 48 1 0 48 0 1 48 1 1 48
          0 0 49 1 0 49 0 1 49 1 1 49
          0 0 50 1 0 50 0 1 50 1 1 50
          0 0 51 1 0 51 0 1 51 1 1 51
          0 0 52 1 0 52 0 1 52 1 1 52
          0 0 53 1 0 53 0 1 53 1 1 53
          0 0 54 1 0 54 0 1 54 1 1 54
          0 0 55 1 0 55 0 1 55 1 1 55
          0 0 56 1 0 56 0 1 56 1 1 56
          0 0 57 1 0 57 0 1 57 1 1 57
          0 0 58 1 0 58 0 1 58 1 1 58
          0 0 59 1 0 59 0 1 59 1 1 59
          0 0 60 1 0 60 0 1 60 1 1 60
          0 0 61 1 0 61 0 1 61 1 1 61
          0 0 62 1 0 62 0 1 62 1 1 62
          0 0 63 1 0 63 0 1 63 1 1 63
          0 0 64 1 0 64 0 1 64 1 1 64
          0 0 65 1 0 65 0 1 65 1 1 65
          0 0 66 1 0 66 0 1 66 1 1 66
          0 0 67 1 0 67 0 1 67 1 1 67
          0 0 68 1 0 68 0 1 68 1 1 68
          0 0 69 1 0 69 0 1 69 1 1 69
          0 0 70 1 0 70 0 1 70 1 1 70
          0 0 71 1 0 71 0 1 71 1 1 71
          0 0 72 1 0 72 0 1 72 1 1 72
          0 0 73 1 0 73 0 1 73 1 1 73
          0 0 74 1 0 74 0 1 74 1 1 74
          0 0 75 1 0 75 0 1 75 1 1 75
          0 0 76 1 0 76 0 1 76 1 1 76
          0 0 77 1 0 77 0 1 77 1 1 77
          0 0 78 1 0 78 0 1 78 1 1 78
          0 0 79 1 0 79 0 1 79 1 1 79
          0 0 80 1 0 80 0 1 80 1 1 80
          0 0 81 1 0 81 0 1 81 1 1 81
          0 0 82 1 0 82 0 1 82 1 1 82
          0 0 83 1 0 83 0 1 83 1 1 83
          0 0 84 1 0 84 0 1 84 1 1 84
          0 0 85 1 0 85 0 1 85 1 1 85
          0 0 86 1 0 86 0 1 86 1 1 86
          0 0 87 1 0 87 0 1 87 1 1 87
          0 0 88 1 0 88 0 1 88 1 1 88
          0 0 89 1 0 89 0 1 89 1 1 89
          0 0 90 1 0 90 0 1 90 1 1 90
          0 0 91 1 0 91 0 1 91 1 1 91
          0 0 92 1 0 92 0 1 92 1 1 92
          0 0 93 1 0 93 0 1 93 1 1 93
          0 0 94 1 0 94 0 1 94 1 1 94
          0 0 95 1 0 95 0 1 95 1 1 95
          0 0 96 1 0 96 0 1 96 1 1 96
          0 0 97 1 0 97 0 1 97 1 1 97
          0 0 98 1 0 98 0 1 98 1 1 98
          0 0 99 1 0 99 0 1 99 1 1 99
          0 0 100 1 0 100 0 1 100 1 1 100
        </DataArray>
      </Points>
      <Cells>
        <DataArray type="Int32" Name="connectivity" NumberOfComponents="1" format="ascii">
          0 1 3 2 4 5 7 6 4 5 7 6
          8 9 11 10 8 9 11 10 12 13 15 14
          12 13 15 14 16 17 19 18 16 17 19 18
          20 21 23 22 20 21 23 22 24 25 27 26
          24 25 27 26 28 29 31 30 28 29 31 30
          32 33 35 34 32 33 35 34 36 37 39 38
          36 37 39 38 40 41 43 42 40 41 43 42
          44 45 47 46 44 45 47 46 48 49 51 50
          48 49 51 50 52 53 55 54 52 53 55 54
          56 57 59 58 56 57 59 58 60 61 63 62
          60 61 63 62 64 65 67 66 64 65 67 66
          68 69 71 70 68 69 71 70 72 73 75 74
          72 73 75 74 76 77 79 78 76 77 79 78
          80 81 83 82 80 81 83 82 84 85 87 86
          84 85 87 86 88 89 91 90 88 89 91 90
          92 93 95 94 92 93 95 94 96 97 99 98
          96 97 99 98 100 101 103 102 100 101 103 102
          104 105 107 106 104 105 107 106 108 109 111 110
          108 109 111 110 112 113 115 114 112 113 115 114
          116 117 119 118 116 117 119 118 120 121 123 122
          120 121 123 122 124 125 127 126 124 125 127 126
          128 129 131 130 128 129 131 130 132 133 135 134
          132 133 135 134 136 137 139 138 136 137 139 138
          140 141 143 142 140 141 143 142 144 145 147 146
          144 145 147 146 148 149 151 150 148 149 151 150
          152 153 155 154 152 153 155 154 156 157 159 158
          156 157 159 158 160 161 163 162 160 161 163 162
          164 165 167 166 164 165 167 166 168 169 171 170
          168 169 171 170 172 173 175 174 172 173 175 174
          176 177 179 178 176 177 179 178 180 181 183 182
          180 181 183 182 184 185 187 186 184 185 187 186
          188 189 191 190 188 189 191 190 192 193 195 194
          192 193 195 194 196 197 199 198 196 197 199 198
          200 201 203 202 200 201 203 202 204 205 207 206
          204 205 207 206 208 209 211 210 208 209 211 210
          212 213 215 214 212 213 215 214 216 217 219 218
          216 217 219 218 220 221 223 222 220 221 223 222
          224 225 227 226 224 225 227 226 228 229 231 230
          228 229 231 230 232 233 235 234 232 233 235 234
          236 237 239 238 236 237 239 238 240 241 243 242
          240 241 243 242 244 245 247 246 244 245 247 246
          248 249 251 250 248 249 251 250 252 253 255 254
          252 253 255 254 256 257 259 258 256 257 259 258
          260 261 263 262 260 261 263 262 264 265 267 266
          264 265 267 266 268 269 271 270 268 269 271 270
          272 273 275 274 272 273 275 274 276 277 279 278
          276 277 279 278 280 281 283 282 280 281 283 282
          284 285 287 286 284 285 287 286 288 289 291 290
          288 289 291 290 292 293 295 294 292 293 295 294
          296 297 299 298 296 297 299 298 300 301 303 302
          300 301 303 302 304 305 307 306 304 305 307 306
          308 309 311 310 308 309 311 310 312 313 315 314
          312 313 315 314 316 317 319 318 316 317 319 318
          320 321 323 322 320 321 323 322 324 325 327 326
          324 325 327 326 328 329 331 330 328 329 331 330
          332 333 335 334 332 333 335 334 336 337 339 338
          336 337 339 338 340 341 343 342 340 341 343 342
          344 345 347 346 344 345 347 346 348 349 351 350
          348 349 351 350 352 353 355 354 352 353 355 354
          356 357 359 358 356 357 359 358 360 361 363 362
          360 361 363 362 364 365 367 366 364 365 367 366
          368 369 371 370 368 369 371 370 372 373 375 374
          372 373 375 374 376 377 379 378 376 377 379 378
          380 381 383 382 380 381 383 382 384 385 387 386
          384 385 387 386 388 389 391 390 388 389 391 390
          392 393 395 394 392 393 395 394 396 397 399 398
          396 397 399 398 400 401 403 402
        </DataArray>
        <DataArray type="Int32" Name="offsets" NumberOfComponents="1" format="ascii">
          8 16 24 32 40 48 56 64 72 80 88 96
          104 112 120 128 136 144 152 160 168 176 184 192
          200 208 216 224 232 240 248 256 264 272 280 288
          296 304 312 320 328 336 344 352 360 368 376 384
          392 400 408 416 424 432 440 448 456 464 472 480
          488 496 504 512 520 528 536 544 552 560 568 576
          584 592 600 608 616 624 632 640 648 656 664 672
          680 688 696 704 712 720 728 736 744 752 760 768
          776 784 792 800
        </DataArray>
        <DataArray type="UInt8" Name="types" NumberOfComponents="1" format="ascii">
          12 12 12 12 12 12 12 12 12 12 12 12
          12 12 12 12 12 12 12 12 12 12 12 12
          12 12 12 12 12 12 12 12 12 12 12 12
          12 12 12 12 12 12 12 12 12 12 12 12
          12 12 12 12 12 12 12 12 12 12 12 12
          12 12 12 12 12 12 12 12 12 12 12 12
          12 12 12 12 12 12 12 12 12 12 12 12
          12 12 12 12 12 12 12 12 12 12 12 12
          12 12 12 12
        </DataArray>
      </Cells>
    </Piece>
  </UnstructuredGrid>
</VTKFile>
