<?xml version="1.0"?>
<VTKFile type="UnstructuredGrid" version="0.1" byte_order="LittleEndian">
  <UnstructuredGrid>
    <Piece NumberOfCells="100" NumberOfPoints="404">
      <CellData Scalars="pressure[0]">
        <DataArray type="Float32" Name="pressure[0]" NumberOfComponents="1" format="ascii">
          5.50211e+06 5.51229e+06 5.52247e+06 5.53265e+06 5.54283e+06 5.55301e+06 5.56319e+06 5.57337e+06 5.58354e+06 5.59372e+06 5.6039e+06 5.61408e+06
          5.62426e+06 5.63444e+06 5.64462e+06 5.6548e+06 5.66498e+06 5.67516e+06 5.68534e+06 5.69552e+06 5.7057e+06 5.71588e+06 5.72606e+06 5.73623e+06
          5.74641e+06 5.75659e+06 5.76677e+06 5.77695e+06 5.78713e+06 5.79729e+06 5.80742e+06 5.81745e+06 5.82729e+06 5.83676e+06 5.84598e+06 5.85498e+06
          5.86203e+06 5.86879e+06 5.87495e+06 5.88062e+06 5.88591e+06 5.89087e+06 5.89555e+06 5.90001e+06 5.90425e+06 5.90831e+06 5.9122e+06 5.91593e+06
          5.91951e+06 5.92295e+06 5.92626e+06 5.92944e+06 5.93251e+06 5.93546e+06 5.93829e+06 5.94103e+06 5.94366e+06 5.94618e+06 5.94861e+06 5.95095e+06
          5.95318e+06 5.95532e+06 5.95736e+06 5.9593e+06 5.96114e+06 5.96287e+06 5.9645e+06 5.96601e+06 5.96741e+06 5.96868e+06 5.96983e+06 5.97087e+06
          5.9718e+06 5.97265e+06 5.97344e+06 5.97419e+06 5.9749e+06 5.97558e+06 5.97626e+06 5.97691e+06 5.97756e+06 5.97821e+06 5.97884e+06 5.97947e+06
          5.98009e+06 5.98071e+06 5.98132e+06 5.98192e+06 5.98252e+06 5.98312e+06 5.9837e+06 5.98428e+06 5.98486e+06 5.98543e+06 5.986e+06 5.98655e+06
          5.98711e+06 5.98765e+06 5.98819e+06 5.98873e+06
        </DataArray>
        <DataArray type="Float32" Name="pressure[1]" NumberOfComponents="1" format="ascii">
          5.50211e+06 5.51229e+06 5.52247e+06 5.53265e+06 5.54283e+06 5.55301e+06 5.56319e+06 5.57337e+06 5.58354e+06 5.59372e+06 5.6039e+06 5.61408e+06
          5.62426e+06 5.63444e+06 5.64462e+06 5.6548e+06 5.66498e+06 5.67516e+06 5.68534e+06 5.69552e+06 5.7057e+06 5.71588e+06 5.72606e+06 5.73623e+06
          5.74641e+06 5.75659e+06 5.76677e+06 5.77695e+06 5.78713e+06 5.79729e+06 5.80742e+06 5.81745e+06 5.82729e+06 5.83676e+06 5.84598e+06 5.85498e+06
          5.86203e+06 5.86879e+06 5.87495e+06 5.88062e+06 5.88591e+06 5.89087e+06 5.89555e+06 5.90001e+06 5.90425e+06 5.90831e+06 5.9122e+06 5.91593e+06
          5.91951e+06 5.92295e+06 5.92626e+06 5.92944e+06 5.93251e+06 5.93546e+06 5.93829e+06 5.94103e+06 5.94366e+06 5.94618e+06 5.94861e+06 5.95095e+06
          5.95318e+06 5.95532e+06 5.95736e+06 5.9593e+06 5.96114e+06 5.96287e+06 5.9645e+06 5.96601e+06 5.96741e+06 5.96868e+06 5.96983e+06 5.97087e+06
          5.9718e+06 5.97265e+06 5.97344e+06 5.97419e+06 5.9749e+06 5.97558e+06 5.97626e+06 5.97691e+06 5.97756e+06 5.97821e+06 5.97884e+06 5.97947e+06
          5.98009e+06 5.98071e+06 5.98132e+06 5.98192e+06 5.98252e+06 5.98312e+06 5.9837e+06 5.98428e+06 5.98486e+06 5.98543e+06 5.986e+06 5.98655e+06
          5.98711e+06 5.98765e+06 5.98819e+06 5.98873e+06
        </DataArray>
        <DataArray type="Float32" Name="pressure[2]" NumberOfComponents="1" format="ascii">
          5.50211e+06 5.51229e+06 5.52247e+06 5.53265e+06 5.54283e+06 5.55301e+06 5.56319e+06 5.57337e+06 5.58354e+06 5.59372e+06 5.6039e+06 5.61408e+06
          5.62426e+06 5.63444e+06 5.64462e+06 5.6548e+06 5.66498e+06 5.67516e+06 5.68534e+06 5.69552e+06 5.7057e+06 5.71588e+06 5.72606e+06 5.73623e+06
          5.74641e+06 5.75659e+06 5.76677e+06 5.77695e+06 5.78713e+06 5.79729e+06 5.80742e+06 5.81745e+06 5.82729e+06 5.83676e+06 5.84598e+06 5.85498e+06
          5.86203e+06 5.86879e+06 5.87495e+06 5.88062e+06 5.88591e+06 5.89087e+06 5.89555e+06 5.90001e+06 5.90425e+06 5.90831e+06 5.9122e+06 5.91593e+06
          5.91951e+06 5.92295e+06 5.92626e+06 5.92944e+06 5.93251e+06 5.93546e+06 5.93829e+06 5.94103e+06 5.94366e+06 5.94618e+06 5.94861e+06 5.95095e+06
          5.95318e+06 5.95532e+06 5.95736e+06 5.9593e+06 5.96114e+06 5.96287e+06 5.9645e+06 5.96601e+06 5.96741e+06 5.96868e+06 5.96983e+06 5.97087e+06
          5.9718e+06 5.97265e+06 5.97344e+06 5.97419e+06 5.9749e+06 5.97558e+06 5.97626e+06 5.97691e+06 5.97756e+06 5.97821e+06 5.97884e+06 5.97947e+06
          5.98009e+06 5.98071e+06 5.98132e+06 5.98192e+06 5.98252e+06 5.98312e+06 5.9837e+06 5.98428e+06 5.98486e+06 5.98543e+06 5.986e+06 5.98655e+06
          5.98711e+06 5.98765e+06 5.98819e+06 5.98873e+06
        </DataArray>
        <DataArray type="Float32" Name="velocity[0]" NumberOfComponents="1" format="ascii">
          0 0 0 0 0 0 0 0 0 0 0 0
          0 0 0 0 0 0 0 0 0 0 0 0
          0 0 0 0 0 0 0 0 0 0 0 0
          0 0 0 0 0 0 0 0 0 0 0 0
          0 0 0 0 0 0 0 0 0 0 0 0
          0 0 0 0 0 0 0 0 0 0 0 0
          0 0 0 0 0 0 0 0 0 0 0 0
          0 0 0 0 0 0 0 0 0 0 0 0
          0 0 0 0
        </DataArray>
        <DataArray type="Float32" Name="velocity[1]" NumberOfComponents="1" format="ascii">
          0 0 0 0 0 0 0 0 0 0 0 0
          0 0 0 0 0 0 0 0 0 0 0 0
          0 0 0 0 0 0 0 0 0 0 0 0
          0 0 0 0 0 0 0 0 0 0 0 0
          0 0 0 0 0 0 0 0 0 0 0 0
          0 0 0 0 0 0 0 0 0 0 0 0
          0 0 0 0 0 0 0 0 0 0 0 0
          0 0 0 0 0 0 0 0 0 0 0 0
          0 0 0 0
        </DataArray>
        <DataArray type="Float32" Name="velocity[2]" NumberOfComponents="1" format="ascii">
          1.15812e-20 -6.89358e-20 2.24271e-20 1.15812e-19 -6.7649e-20 2.18756e-20 2.27948e-20 -6.91196e-20 1.15628e-19 -6.72813e-20 -2.54603e-19 -3.48172e-19
          -3.42841e-19 -1.59196e-19 -2.56809e-19 -6.98549e-20 3.36774e-19 2.10116e-19 2.08646e-19 3.62694e-19 1.44949e-18 1.33467e-17 1.18641e-16 9.95273e-16
          7.63123e-15 5.28028e-14 3.26199e-13 1.7771e-12 8.41811e-12 3.41696e-11 1.1741e-10 3.39287e-10 8.23806e-10 1.68107e-09 3.06601e-09 -1.9176e-06
          -3.83865e-06 -3.77181e-06 -3.64099e-06 -3.51424e-06 -3.39188e-06 -3.27408e-06 -3.16083e-06 -3.05208e-06 -2.9477e-06 -2.84756e-06 -2.75149e-06 -2.65932e-06
          -2.57089e-06 -2.48602e-06 -2.40456e-06 -2.32635e-06 -2.25123e-06 -2.17905e-06 -2.10966e-06 -2.04291e-06 -1.97868e-06 -1.91682e-06 -1.85719e-06 -1.79968e-06
          -1.74414e-06 -1.69045e-06 -1.63848e-06 -1.58811e-06 -1.53919e-06 -1.49161e-06 -1.44522e-06 -1.39987e-06 -1.35539e-06 -1.31161e-06 -1.26831e-06 -1.2253e-06
          -1.18234e-06 -1.13927e-06 -1.09596e-06 -1.05239e-06 -1.00858e-06 -9.64616e-07 -9.2058e-07 -8.76561e-07 -8.32623e-07 -7.88809e-07 -7.45143e-07 -7.01636e-07
          -6.58285e-07 -6.15085e-07 -5.72029e-07 -5.29108e-07 -4.86313e-07 -4.43632e-07 -4.01058e-07 -3.58579e-07 -3.16186e-07 -2.7387e-07 -2.3162e-07 -1.89426e-07
          -1.4728e-07 -1.05172e-07 -6.30907e-08 -2.1028e-08
        </DataArray>
        <DataArray type="Float32" Name="z[0]" NumberOfComponents="1" format="ascii">
          1 1 1 1 1 1 1 1 1 1 1 1
          1 1 1 1 1 1 1 1 1 1 1 0.999999
          0.999992 0.999949 0.999696 0.998421 0.992968 0.973674 0.918601 0.794497 0.579422 0.314923 0.186649 0.0883275
          0.0608134 0.0380995 0.0233518 0.0138472 0.007919 0.00435004 0.00229259 0.0011609 0.000566325 0.000266791 0.000121552 5.36149e-05
          2.2922e-05 9.51395e-06 3.8412e-06 1.51172e-06 5.81051e-07 2.18468e-07 8.0449e-08 2.90401e-08 1.02824e-08 3.57298e-09 1.21894e-09 4.08413e-10
          1.34428e-10 4.34706e-11 1.38096e-11 4.30845e-12 1.31956e-12 3.9653e-13 1.16849e-13 3.37501e-14 9.55156e-15 2.64794e-15 7.18814e-16 1.90928e-16
          4.95557e-17 1.25471e-17 3.09343e-18 7.41479e-19 1.72574e-19 3.89652e-20 8.52986e-21 1.80975e-21 3.72089e-22 7.41358e-23 1.43159e-23 2.67982e-24
          4.86414e-25 8.56338e-26 1.46271e-26 2.42486e-27 3.90276e-28 6.10036e-29 9.26354e-30 1.36702e-30 1.96105e-31 2.73557e-32 3.7118e-33 4.90036e-34
          6.29651e-35 7.87634e-36 9.59443e-37 1.28667e-37
        </DataArray>
        <DataArray type="Float32" Name="z[1]" NumberOfComponents="1" format="ascii">
          0 0 0 0 0 0 0 0 0 0 0 0
          0 3.05622e-17 3.6693e-16 5.33381e-15 7.35779e-14 9.56046e-13 1.16555e-11 1.32793e-10 1.4076e-09 1.3811e-08 1.24692e-07 1.02873e-06
          7.69183e-06 5.16044e-05 0.00030688 0.00159347 0.00709534 0.0265621 0.0821309 0.207355 0.424373 0.691269 0.820602 0.809316
          0.832853 0.852163 0.859627 0.862564 0.86288 0.861663 0.859564 0.857027 0.854302 0.851506 0.84869 0.845869
          0.84304 0.840189 0.837298 0.834343 0.8313 0.828136 0.824814 0.821289 0.817508 0.813406 0.808906 0.803913
          0.798305 0.791921 0.784549 0.775895 0.76555 0.75292 0.737135 0.7169 0.690309 0.654712 0.606996 0.544749
          0.468229 0.381764 0.293133 0.211015 0.142109 0.0895025 0.0527629 0.0291613 0.0151416 0.00740317 0.00341647 0.00149167
          0.000617564 0.000242965 9.10198e-05 3.25296e-05 1.11107e-05 3.63276e-06 1.13876e-06 3.42733e-07 9.91712e-08 2.76228e-08 7.41505e-09 1.92046e-09
          4.80387e-10 1.16171e-10 2.71847e-11 7.87749e-12
        </DataArray>
        <DataArray type="Float32" Name="z[2]" NumberOfComponents="1" format="ascii">
          0 0 0 0 0 0 0 0 0 0 0 0
          0 0 0 0 0 1.54143e-43 4.81094e-41 1.47927e-38 4.45585e-36 1.31012e-33 3.76975e-31 1.07003e-28
          3.01264e-26 8.35397e-24 2.23266e-21 5.60448e-19 1.30949e-16 2.96671e-14 7.26118e-12 2.06941e-09 6.42563e-07 0.000201935 0.068084 25.6222
          58.4808 60.0426 61.07 61.7654 62.2298 62.5393 62.748 62.8934 63.0007 63.0861 63.1592 63.2253
          63.2874 63.347 63.4051 63.4622 63.5187 63.5751 63.6316 63.6887 63.7468 63.8066 63.8686 63.9338
          64.003 64.0776 64.1593 64.2506 64.3548 64.4768 64.6237 64.8061 65.0397 65.3463 65.7515 66.2755
          66.9162 67.6382 68.3776 69.063 69.6394 70.0812 70.3921 70.5946 70.7179 70.7894 70.8298 70.8532
          70.8678 70.8782 70.8867 70.8944 70.9017 70.9088 70.9158 70.9227 70.9295 70.9363 70.943 70.9496
          70.9562 70.9627 70.9691 70.9754
        </DataArray>
        <DataArray type="Float32" Name="sat[0]" NumberOfComponents="1" format="ascii">
          1 1 1 1 1 1 1 1 1 1 1 1
          1 1 1 1 1 1 1 1 1 1 1 0.999999
          0.999992 0.999949 0.999696 0.998421 0.992968 0.973674 0.918601 0.794497 0.579422 0.314924 0.186663 0.0976634
          0.0608774 0.0380999 0.023352 0.0138473 0.00791904 0.00435006 0.0022926 0.00116091 0.000566327 0.000266791 0.000121552 5.3615e-05
          2.2922e-05 9.51397e-06 3.84121e-06 1.51173e-06 5.81052e-07 2.18468e-07 8.04492e-08 2.90401e-08 1.02824e-08 3.57298e-09 1.21894e-09 4.08413e-10
          1.34428e-10 4.34707e-11 1.38096e-11 4.30846e-12 1.31956e-12 3.9653e-13 1.16849e-13 3.37501e-14 9.55157e-15 2.64794e-15 7.18815e-16 1.90928e-16
          4.95557e-17 1.25471e-17 3.09344e-18 7.4148e-19 1.72574e-19 3.89652e-20 8.52986e-21 1.80975e-21 3.72089e-22 7.41358e-23 1.43159e-23 2.67982e-24
          4.86414e-25 8.56338e-26 1.46271e-26 2.42486e-27 3.90276e-28 6.10036e-29 9.26354e-30 1.36702e-30 1.96105e-31 2.73557e-32 3.7118e-33 4.90036e-34
          6.29651e-35 7.87634e-36 9.59443e-37 1.28667e-37
        </DataArray>
        <DataArray type="Float32" Name="sat[1]" NumberOfComponents="1" format="ascii">
          0 0 0 0 0 0 0 0 0 0 0 0
          0 3.0298e-17 3.63752e-16 5.28753e-15 7.29383e-14 9.4772e-13 1.15538e-11 1.31632e-10 1.39528e-09 1.36898e-08 1.23596e-07 1.01968e-06
          7.624e-06 5.11485e-05 0.000304164 0.00157935 0.00703232 0.0263257 0.0813989 0.205503 0.420578 0.685076 0.813337 0.902337
          0.856284 0.875249 0.882938 0.885975 0.88632 0.885088 0.88295 0.880361 0.877578 0.874721 0.871842 0.868959
          0.866066 0.86315 0.860191 0.857168 0.854053 0.850813 0.847411 0.843799 0.839923 0.835718 0.831104 0.825983
          0.820228 0.813677 0.806109 0.797225 0.786601 0.773629 0.757416 0.736629 0.70931 0.672738 0.623711 0.559753
          0.481127 0.392281 0.301209 0.21683 0.146025 0.0919693 0.0542173 0.0299652 0.015559 0.0076073 0.00351069 0.0015328
          0.000634598 0.000249668 9.35309e-05 3.34271e-05 1.14173e-05 3.73301e-06 1.17019e-06 3.52193e-07 1.01909e-07 2.83854e-08 7.61977e-09 1.97348e-09
          4.93652e-10 1.19379e-10 2.79355e-11 8.09507e-12
        </DataArray>
        <DataArray type="Float32" Name="sat[2]" NumberOfComponents="1" format="ascii">
          0 0 0 0 0 0 0 0 0 0 0 0
          0 0 0 0 0 0 0 0 0 0 0 0
          0 0 0 0 0 0 0 0 0 0 0 0
          0.0828386 0.0866516 0.0937104 0.100177 0.105761 0.110562 0.114758 0.118478 0.121856 0.125012 0.128036 0.130988
          0.133911 0.136841 0.139805 0.14283 0.145947 0.149186 0.152589 0.156201 0.160077 0.164282 0.168896 0.174017
          0.179772 0.186323 0.193891 0.202775 0.213399 0.226371 0.242584 0.263371 0.29069 0.327262 0.376289 0.440247
          0.518873 0.607719 0.698791 0.78317 0.853975 0.908031 0.945783 0.970035 0.984441 0.992393 0.996489 0.998467
          0.999365 0.99975 0.999906 0.999967 0.999989 0.999996 0.999999 1 1 1 1 1
          1 1 1 1
        </DataArray>
        <DataArray type="Float32" Name="massFrac[0]" NumberOfComponents="1" format="ascii">
          1 1 1 1 1 1 1 1 1 1 1 1
          1 1 1 1 1 1 1 1 1 1 1 0.999999
          0.999993 0.999956 0.999739 0.998647 0.99397 0.977365 0.929452 0.818623 0.61661 0.349228 0.211299 0.11122
          0.0750106 0.047296 0.0292667 0.0174972 0.0100741 0.00556484 0.00294672 0.00149826 0.000733575 0.000346753 0.000158495 7.01307e-05
          3.00769e-05 1.25229e-05 5.0722e-06 2.00272e-06 7.72374e-07 2.91427e-07 1.07715e-07 3.90366e-08 1.38811e-08 4.84595e-09 1.66172e-09 5.5997e-10
          1.85511e-10 6.0437e-11 1.93663e-11 6.10441e-12 1.89297e-12 5.7765e-13 1.73582e-13 5.14391e-14 1.50723e-14 4.38604e-15 1.27561e-15 3.736e-16
          1.10973e-16 3.35769e-17 1.03465e-17 3.22702e-18 1.00511e-18 3.05941e-19 8.84841e-20 2.36532e-20 5.75094e-21 1.27417e-21 2.61102e-22 5.03616e-23
          9.26851e-24 1.64144e-24 2.81036e-25 4.66292e-26 7.50671e-27 1.17339e-27 1.78172e-28 2.62906e-29 3.77115e-30 5.26008e-31 7.13655e-32 9.42085e-33
          1.21038e-33 1.51394e-34 1.84401e-35 2.4727e-36
        </DataArray>
        <DataArray type="Float32" Name="massFrac[1]" NumberOfComponents="1" format="ascii">
          0 0 0 0 0 0 0 0 0 0 0 0
          0 2.59455e-17 3.11502e-16 4.52809e-15 6.24632e-14 8.11626e-13 9.8948e-12 1.12733e-10 1.19497e-09 1.17247e-08 1.05856e-07 8.73334e-07
          6.52991e-06 4.38093e-05 0.000260534 0.00135307 0.00602961 0.0226351 0.0705479 0.181377 0.38339 0.650772 0.788645 0.865127
          0.872105 0.898059 0.91462 0.925284 0.931887 0.935781 0.937924 0.938993 0.939437 0.93954 0.939464 0.939298
          0.939088 0.938857 0.938613 0.93836 0.938098 0.937825 0.937538 0.937234 0.936908 0.936554 0.936166 0.935734
          0.935246 0.934687 0.934035 0.93326 0.932317 0.931138 0.929618 0.927586 0.924756 0.920645 0.914455 0.904923
          0.89014 0.867298 0.83233 0.779639 0.702643 0.596587 0.464653 0.32356 0.198674 0.108018 0.052899 0.0237981
          0.00998993 0.00395367 0.00148462 0.000531039 0.000181424 5.932e-05 1.8594e-05 5.59575e-06 1.619e-06 4.50909e-07 1.2103e-07 3.13433e-08
          7.83954e-09 1.89565e-09 4.43553e-10 1.2852e-10
        </DataArray>
        <DataArray type="Float32" Name="massFrac[2]" NumberOfComponents="1" format="ascii">
          0 0 0 0 0 0 0 0 0 0 0 0
          0 0 0 0 0 0 3.50325e-44 1.08446e-41 3.26677e-39 9.60502e-37 2.76376e-34 7.84483e-32
          2.20869e-29 6.12468e-27 1.63693e-24 4.1098e-22 9.61012e-20 2.18326e-17 5.38635e-15 1.56324e-12 5.01324e-10 1.64173e-07 5.65072e-05 0.0236531
          0.052884 0.0546452 0.0561136 0.0572189 0.0580392 0.0586543 0.0591289 0.059509 0.059829 0.0601134 0.0603779 0.0606319
          0.0608815 0.0611306 0.061382 0.0616382 0.0619016 0.0621751 0.0624619 0.062766 0.0630919 0.0634456 0.0638341 0.0642663
          0.0647541 0.0653131 0.0659649 0.0667401 0.0676833 0.0688619 0.0703817 0.0724138 0.0752441 0.0793548 0.0855447 0.0950775
          0.10986 0.132702 0.16767 0.220361 0.297357 0.403413 0.535347 0.67644 0.801326 0.891982 0.947101 0.976202
          0.99001 0.996046 0.998515 0.999469 0.999819 0.999941 0.999981 0.999994 0.999998 1 1 1
          1 1 1 1
        </DataArray>
        <DataArray type="Float32" Name="total fl. vol." NumberOfComponents="1" format="ascii">
          1 1 1 1 1 1 1 1 1 1 1 1
          1 1 1 1 1 1 1 1 1 1 1 1
          1 1 1 1 1 1 1 1 1 1 0.999924 0.904408
          0.998948 0.999992 0.999993 0.999994 0.999995 0.999995 0.999996 0.999996 0.999997 0.999997 0.999997 0.999997
          0.999998 0.999998 0.999998 0.999998 0.999998 0.999998 0.999999 0.999999 0.999999 0.999999 0.999999 0.999999
          0.999999 0.999999 0.999999 0.999999 0.999999 0.999999 0.999999 0.999999 0.999999 0.999999 0.999999 0.999999
          0.999999 0.999999 1 1 1 1 1 1 1 1 1 1
          1 1 1 1 1 1 1 1 1 1 1 1
          1 1 1 1
        </DataArray>
      </CellData>
      <Points>
        <DataArray type="Float32" Name="Coordinates" NumberOfComponents="3" format="ascii">
          0 0 0 1 0 0 0 1 0 1 1 0
          0 0 1 1 0 1 0 1 1 1 1 1
          0 0 2 1 0 2 0 1 2 1 1 2
          0 0 3 1 0 3 0 1 3 1 1 3
          0 0 4 1 0 4 0 1 4 1 1 4
          0 0 5 1 0 5 0 1 5 1 1 5
          0 0 6 1 0 6 0 1 6 1 1 6
          0 0 7 1 0 7 0 1 7 1 1 7
          0 0 8 1 0 8 0 1 8 1 1 8
          0 0 9 1 0 9 0 1 9 1 1 9
          0 0 10 1 0 10 0 1 10 1 1 10
          0 0 11 1 0 11 0 1 11 1 1 11
          0 0 12 1 0 12 0 1 12 1 1 12
          0 0 13 1 0 13 0 1 13 1 1 13
          0 0 14 1 0 14 0 1 14 1 1 14
          0 0 15 1 0 15 0 1 15 1 1 15
          0 0 16 1 0 16 0 1 16 1 1 16
          0 0 17 1 0 17 0 1 17 1 1 17
          0 0 18 1 0 18 0 1 18 1 1 18
          0 0 19 1 0 19 0 1 19 1 1 19
          0 0 20 1 0 20 0 1 20 1 1 20
          0 0 21 1 0 21 0 1 21 1 1 21
          0 0 22 1 0 22 0 1 22 1 1 22
          0 0 23 1 0 23 0 1 23 1 1 23
          0 0 24 1 0 24 0 1 24 1 1 24
          0 0 25 1 0 25 0 1 25 1 1 25
          0 0 26 1 0 26 0 1 26 1 1 26
          0 0 27 1 0 27 0 1 27 1 1 27
          0 0 28 1 0 28 0 1 28 1 1 28
          0 0 29 1 0 29 0 1 29 1 1 29
          0 0 30 1 0 30 0 1 30 1 1 30
          0 0 31 1 0 31 0 1 31 1 1 31
          0 0 32 1 0 32 0 1 32 1 1 32
          0 0 33 1 0 33 0 1 33 1 1 33
          0 0 34 1 0 34 0 1 34 1 1 34
          0 0 35 1 0 35 0 1 35 1 1 35
          0 0 36 1 0 36 0 1 36 1 1 36
          0 0 37 1 0 37 0 1 37 1 1 37
          0 0 38 1 0 38 0 1 38 1 1 38
          0 0 39 1 0 39 0 1 39 1 1 39
          0 0 40 1 0 40 0 1 40 1 1 40
          0 0 41 1 0 41 0 1 41 1 1 41
          0 0 42 1 0 42 0 1 42 1 1 42
          0 0 43 1 0 43 0 1 43 1 1 43
          0 0 44 1 0 44 0 1 44 1 1 44
          0 0 45 1 0 45 0 1 45 1 1 45
          0 0 46 1 0 46 0 1 46 1 1 46
          0 0 47 1 0 47 0 1 47 1 1 47
          0 0 48 1 0 48 0 1 48 1 1 48
          0 0 49 1 0 49 0 1 49 1 1 49
          0 0 50 1 0 50 0 1 50 1 1 50
          0 0 51 1 0 51 0 1 51 1 1 51
          0 0 52 1 0 52 0 1 52 1 1 52
          0 0 53 1 0 53 0 1 53 1 1 53
          0 0 54 1 0 54 0 1 54 1 1 54
          0 0 55 1 0 55 0 1 55 1 1 55
          0 0 56 1 0 56 0 1 56 1 1 56
          0 0 57 1 0 57 0 1 57 1 1 57
          0 0 58 1 0 58 0 1 58 1 1 58
          0 0 59 1 0 59 0 1 59 1 1 59
          0 0 60 1 0 60 0 1 60 1 1 60
          0 0 61 1 0 61 0 1 61 1 1 61
          0 0 62 1 0 62 0 1 62 1 1 62
          0 0 63 1 0 63 0 1 63 1 1 63
          0 0 64 1 0 64 0 1 64 1 1 64
          0 0 65 1 0 65 0 1 65 1 1 65
          0 0 66 1 0 66 0 1 66 1 1 66
          0 0 67 1 0 67 0 1 67 1 1 67
          0 0 68 1 0 68 0 1 68 1 1 68
          0 0 69 1 0 69 0 1 69 1 1 69
          0 0 70 1 0 70 0 1 70 1 1 70
          0 0 71 1 0 71 0 1 71 1 1 71
          0 0 72 1 0 72 0 1 72 1 1 72
          0 0 73 1 0 73 0 1 73 1 1 73
          0 0 74 1 0 74 0 1 74 1 1 74
          0 0 75 1 0 75 0 1 75 1 1 75
          0 0 76 1 0 76 0 1 76 1 1 76
          0 0 77 1 0 77 0 1 77 1 1 77
          0 0 78 1 0 78 0 1 78 1 1 78
          0 0 79 1 0 79 0 1 79 1 1 79
          0 0 80 1 0 80 0 1 80 1 1 80
          0 0 81 1 0 81 0 1 81 1 1 81
          0 0 82 1 0 82 0 1 82 1 1 82
          0 0 83 1 0 83 0 1 83 1 1 83
          0 0 84 1 0 84 0 1 84 1 1 84
          0 0 85 1 0 85 0 1 85 1 1 85
          0 0 86 1 0 86 0 1 86 1 1 86
          0 0 87 1 0 87 0 1 87 1 1 87
          0 0 88 1 0 88 0 1 88 1 1 88
          0 0 89 1 0 89 0 1 89 1 1 89
          0 0 90 1 0 90 0 1 90 1 1 90
          0 0 91 1 0 91 0 1 91 1 1 91
          0 0 92 1 0 92 0 1 92 1 1 92
          0 0 93 1 0 93 0 1 93 1 1 93
          0 0 94 1 0 94 0 1 94 1 1 94
          0 0 95 1 0 95 0 1 95 1 1 95
          0 0 96 1 0 96 0 1 96 1 1 96
          0 0 97 1 0 97 0 1 97 1 1 97
          0 0 98 1 0 98 0 1 98 1 1 98
          0 0 99 1 0 99 0 1 99 1 1 99
          0 0 100 1 0 100 0 1 100 1 1 100
        </DataArray>
      </Points>
      <Cells>
        <DataArray type="Int32" Name="connectivity" NumberOfComponents="1" format="ascii">
          0 1 3 2 4 5 7 6 4 5 7 6
          8 9 11 10 8 9 11 10 12 13 15 14
          12 13 15 14 16 17 19 18 16 17 19 18
          20 21 23 22 20 21 23 22 24 25 27 26
          24 25 27 26 28 29 31 30 28 29 31 30
          32 33 35 34 32 33 35 34 36 37 39 38
          36 37 39 38 40 41 43 42 40 41 43 42
          44 45 47 46 44 45 47 46 48 49 51 50
          48 49 51 50 52 53 55 54 52 53 55 54
          56 57 59 58 56 57 59 58 60 61 63 62
          60 61 63 62 64 65 67 66 64 65 67 66
          68 69 71 70 68 69 71 70 72 73 75 74
          72 73 75 74 76 77 79 78 76 77 79 78
          80 81 83 82 80 81 83 82 84 85 87 86
          84 85 87 86 88 89 91 90 88 89 91 90
          92 93 95 94 92 93 95 94 96 97 99 98
          96 97 99 98 100 101 103 102 100 101 103 102
          104 105 107 106 104 105 107 106 108 109 111 110
          108 109 111 110 112 113 115 114 112 113 115 114
          116 117 119 118 116 117 119 118 120 121 123 122
          120 121 123 122 124 125 127 126 124 125 127 126
          128 129 131 130 128 129 131 130 132 133 135 134
          132 133 135 134 136 137 139 138 136 137 139 138
          140 141 143 142 140 141 143 142 144 145 147 146
          144 145 147 146 148 149 151 150 148 149 151 150
          152 153 155 154 152 153 155 154 156 157 159 158
          156 157 159 158 160 161 163 162 160 161 163 162
          164 165 167 166 164 165 167 166 168 169 171 170
          168 169 171 170 172 173 175 174 172 173 175 174
          176 177 179 178 176 177 179 178 180 181 183 182
          180 181 183 182 184 185 187 186 184 185 187 186
          188 189 191 190 188 189 191 190 192 193 195 194
          192 193 195 194 196 197 199 198 196 197 199 198
          200 201 203 202 200 201 203 202 204 205 207 206
          204 205 207 206 208 209 211 210 208 209 211 210
          212 213 215 214 212 213 215 214 216 217 219 218
          216 217 219 218 220 221 223 222 220 221 223 222
          224 225 227 226 224 225 227 226 228 229 231 230
          228 229 231 230 232 233 235 234 232 233 235 234
          236 237 239 238 236 237 239 238 240 241 243 242
          240 241 243 242 244 245 247 246 244 245 247 246
          248 249 251 250 248 249 251 250 252 253 255 254
          252 253 255 254 256 257 259 258 256 257 259 258
          260 261 263 262 260 261 263 262 264 265 267 266
          264 265 267 266 268 269 271 270 268 269 271 270
          272 273 275 274 272 273 275 274 276 277 279 278
          276 277 279 278 280 281 283 282 280 281 283 282
          284 285 287 286 284 285 287 286 288 289 291 290
          288 289 291 290 292 293 295 294 292 293 295 294
          296 297 299 298 296 297 299 298 300 301 303 302
          300 301 303 302 304 305 307 306 304 305 307 306
          308 309 311 310 308 309 311 310 312 313 315 314
          312 313 315 314 316 317 319 318 316 317 319 318
          320 321 323 322 320 321 323 322 324 325 327 326
          324 325 327 326 328 329 331 330 328 329 331 330
          332 333 335 334 332 333 335 334 336 337 339 338
          336 337 339 338 340 341 343 342 340 341 343 342
          344 345 347 346 344 345 347 346 348 349 351 350
          348 349 351 350 352 353 355 354 352 353 355 354
          356 357 359 358 356 357 359 358 360 361 363 362
          360 361 363 362 364 365 367 366 364 365 367 366
          368 369 371 370 368 369 371 370 372 373 375 374
          372 373 375 374 376 377 379 378 376 377 379 378
          380 381 383 382 380 381 383 382 384 385 387 386
          384 385 387 386 388 389 391 390 388 389 391 390
          392 393 395 394 392 393 395 394 396 397 399 398
          396 397 399 398 400 401 403 402
        </DataArray>
        <DataArray type="Int32" Name="offsets" NumberOfComponents="1" format="ascii">
          8 16 24 32 40 48 56 64 72 80 88 96
          104 112 120 128 136 144 152 160 168 176 184 192
          200 208 216 224 232 240 248 256 264 272 280 288
          296 304 312 320 328 336 344 352 360 368 376 384
          392 400 408 416 424 432 440 448 456 464 472 480
          488 496 504 512 520 528 536 544 552 560 568 576
          584 592 600 608 616 624 632 640 648 656 664 672
          680 688 696 704 712 720 728 736 744 752 760 768
          776 784 792 800
        </DataArray>
        <DataArray type="UInt8" Name="types" NumberOfComponents="1" format="ascii">
          12 12 12 12 12 12 12 12 12 12 12 12
          12 12 12 12 12 12 12 12 12 12 12 12
          12 12 12 12 12 12 12 12 12 12 12 12
          12 12 12 12 12 12 12 12 12 12 12 12
          12 12 12 12 12 12 12 12 12 12 12 12
          12 12 12 12 12 12 12 12 12 12 12 12
          12 12 12 12 12 12 12 12 12 12 12 12
          12 12 12 12 12 12 12 12 12 12 12 12
          12 12 12 12
        </DataArray>
      </Cells>
    </Piece>
  </UnstructuredGrid>
</VTKFile>
