<?xml version="1.0"?>
<VTKFile type="UnstructuredGrid" version="0.1" byte_order="LittleEndian">
  <UnstructuredGrid>
    <Piece NumberOfCells="100" NumberOfPoints="404">
      <CellData Scalars="pressure[0]">
        <DataArray type="Float32" Name="pressure[0]" NumberOfComponents="1" format="ascii">
          5.76777e+06 5.76828e+06 5.76879e+06 5.7693e+06 5.76981e+06 5.77032e+06 5.77083e+06 5.77134e+06 5.77185e+06 5.77236e+06 5.77287e+06 5.77338e+06
          5.77389e+06 5.7744e+06 5.77491e+06 5.77542e+06 5.77593e+06 5.77645e+06 5.77696e+06 5.77747e+06 5.77798e+06 5.77849e+06 5.779e+06 5.77951e+06
          5.78002e+06 5.78053e+06 5.78104e+06 5.78156e+06 5.78207e+06 5.78258e+06 5.78309e+06 5.7836e+06 5.78428e+06 5.79445e+06 5.80461e+06 5.81477e+06
          5.82491e+06 5.83505e+06 5.84517e+06 5.85528e+06 5.86538e+06 5.87545e+06 5.88551e+06 5.89556e+06 5.90558e+06 5.91559e+06 5.92559e+06 5.93556e+06
          5.94552e+06 5.95546e+06 5.96539e+06 5.97529e+06 5.98518e+06 5.99505e+06 6.00491e+06 6.01475e+06 6.02457e+06 6.03438e+06 6.04417e+06 6.05395e+06
          6.06371e+06 6.07346e+06 6.08318e+06 6.0929e+06 6.1026e+06 6.11228e+06 6.12195e+06 6.1316e+06 6.14124e+06 6.15087e+06 6.16048e+06 6.17008e+06
          6.17967e+06 6.18924e+06 6.19879e+06 6.20833e+06 6.21786e+06 6.22738e+06 6.23689e+06 6.24638e+06 6.25586e+06 6.26533e+06 6.27479e+06 6.28424e+06
          6.29368e+06 6.3031e+06 6.31251e+06 6.32192e+06 6.33131e+06 6.3407e+06 6.35007e+06 6.35944e+06 6.3688e+06 6.37815e+06 6.3875e+06 6.39685e+06
          6.40619e+06 6.41554e+06 6.42512e+06 6.43522e+06
        </DataArray>
        <DataArray type="Float32" Name="pressure[1]" NumberOfComponents="1" format="ascii">
          5.76777e+06 5.76828e+06 5.76879e+06 5.7693e+06 5.76981e+06 5.77032e+06 5.77083e+06 5.77134e+06 5.77185e+06 5.77236e+06 5.77287e+06 5.77338e+06
          5.77389e+06 5.7744e+06 5.77491e+06 5.77542e+06 5.77593e+06 5.77645e+06 5.77696e+06 5.77747e+06 5.77798e+06 5.77849e+06 5.779e+06 5.77951e+06
          5.78002e+06 5.78053e+06 5.78104e+06 5.78156e+06 5.78207e+06 5.78258e+06 5.78309e+06 5.7836e+06 5.78428e+06 5.79445e+06 5.80461e+06 5.81477e+06
          5.82491e+06 5.83505e+06 5.84517e+06 5.85528e+06 5.86538e+06 5.87545e+06 5.88551e+06 5.89556e+06 5.90558e+06 5.91559e+06 5.92559e+06 5.93556e+06
          5.94552e+06 5.95546e+06 5.96539e+06 5.97529e+06 5.98518e+06 5.99505e+06 6.00491e+06 6.01475e+06 6.02457e+06 6.03438e+06 6.04417e+06 6.05395e+06
          6.06371e+06 6.07346e+06 6.08318e+06 6.0929e+06 6.1026e+06 6.11228e+06 6.12195e+06 6.1316e+06 6.14124e+06 6.15087e+06 6.16048e+06 6.17008e+06
          6.17967e+06 6.18924e+06 6.19879e+06 6.20833e+06 6.21786e+06 6.22738e+06 6.23689e+06 6.24638e+06 6.25586e+06 6.26533e+06 6.27479e+06 6.28424e+06
          6.29368e+06 6.3031e+06 6.31251e+06 6.32192e+06 6.33131e+06 6.3407e+06 6.35007e+06 6.35944e+06 6.3688e+06 6.37815e+06 6.3875e+06 6.39685e+06
          6.40619e+06 6.41554e+06 6.42512e+06 6.43522e+06
        </DataArray>
        <DataArray type="Float32" Name="pressure[2]" NumberOfComponents="1" format="ascii">
          5.76777e+06 5.76828e+06 5.76879e+06 5.7693e+06 5.76981e+06 5.77032e+06 5.77083e+06 5.77134e+06 5.77185e+06 5.77236e+06 5.77287e+06 5.77338e+06
          5.77389e+06 5.7744e+06 5.77491e+06 5.77542e+06 5.77593e+06 5.77645e+06 5.77696e+06 5.77747e+06 5.77798e+06 5.77849e+06 5.779e+06 5.77951e+06
          5.78002e+06 5.78053e+06 5.78104e+06 5.78156e+06 5.78207e+06 5.78258e+06 5.78309e+06 5.7836e+06 5.78428e+06 5.79445e+06 5.80461e+06 5.81477e+06
          5.82491e+06 5.83505e+06 5.84517e+06 5.85528e+06 5.86538e+06 5.87545e+06 5.88551e+06 5.89556e+06 5.90558e+06 5.91559e+06 5.92559e+06 5.93556e+06
          5.94552e+06 5.95546e+06 5.96539e+06 5.97529e+06 5.98518e+06 5.99505e+06 6.00491e+06 6.01475e+06 6.02457e+06 6.03438e+06 6.04417e+06 6.05395e+06
          6.06371e+06 6.07346e+06 6.08318e+06 6.0929e+06 6.1026e+06 6.11228e+06 6.12195e+06 6.1316e+06 6.14124e+06 6.15087e+06 6.16048e+06 6.17008e+06
          6.17967e+06 6.18924e+06 6.19879e+06 6.20833e+06 6.21786e+06 6.22738e+06 6.23689e+06 6.24638e+06 6.25586e+06 6.26533e+06 6.27479e+06 6.28424e+06
          6.29368e+06 6.3031e+06 6.31251e+06 6.32192e+06 6.33131e+06 6.3407e+06 6.35007e+06 6.35944e+06 6.3688e+06 6.37815e+06 6.3875e+06 6.39685e+06
          6.40619e+06 6.41554e+06 6.42512e+06 6.43522e+06
        </DataArray>
        <DataArray type="Float32" Name="velocity[0]" NumberOfComponents="1" format="ascii">
          0 0 0 0 0 0 0 0 0 0 0 0
          0 0 0 0 0 0 0 0 0 0 0 0
          0 0 0 0 0 0 0 0 0 0 0 0
          0 0 0 0 0 0 0 0 0 0 0 0
          0 0 0 0 0 0 0 0 0 0 0 0
          0 0 0 0 0 0 0 0 0 0 0 0
          0 0 0 0 0 0 0 0 0 0 0 0
          0 0 0 0 0 0 0 0 0 0 0 0
          0 0 0 0
        </DataArray>
        <DataArray type="Float32" Name="velocity[1]" NumberOfComponents="1" format="ascii">
          0 0 0 0 0 0 0 0 0 0 0 0
          0 0 0 0 0 0 0 0 0 0 0 0
          0 0 0 0 0 0 0 0 0 0 0 0
          0 0 0 0 0 0 0 0 0 0 0 0
          0 0 0 0 0 0 0 0 0 0 0 0
          0 0 0 0 0 0 0 0 0 0 0 0
          0 0 0 0 0 0 0 0 0 0 0 0
          0 0 0 0 0 0 0 0 0 0 0 0
          0 0 0 0
        </DataArray>
        <DataArray type="Float32" Name="velocity[2]" NumberOfComponents="1" format="ascii">
          4.06787e-13 1.22035e-12 2.0339e-12 2.84746e-12 3.66107e-12 4.47477e-12 5.28859e-12 6.10256e-12 6.91673e-12 7.73111e-12 8.54577e-12 9.36072e-12
          1.0176e-11 1.09916e-11 1.18077e-11 1.26242e-11 1.34411e-11 1.42586e-11 1.50766e-11 1.58951e-11 1.67143e-11 1.75341e-11 1.83547e-11 1.91759e-11
          1.99978e-11 2.08206e-11 2.16442e-11 2.24686e-11 2.32939e-11 2.41201e-11 2.49473e-11 1.0186e-10 9.88008e-11 -3.86499e-12 -3.27465e-11 -3.70073e-11
          -3.2656e-11 -4.68313e-11 -9.74073e-11 -1.27819e-10 -5.32469e-11 7.44421e-11 9.83007e-11 7.26663e-11 1.50255e-10 1.85237e-10 7.58202e-11 3.19988e-11
          5.09907e-11 -5.52815e-11 -1.3653e-10 2.07379e-11 2.46456e-10 2.43981e-10 7.893e-11 -6.70298e-12 -2.14104e-11 -3.38118e-11 -3.88686e-11 -4.31577e-11
          -5.42531e-11 -8.31997e-11 -1.46554e-10 -2.37917e-10 -2.66946e-10 -1.23828e-10 1.02741e-10 1.95329e-10 1.3713e-10 4.83194e-11 -4.32355e-11 -1.51224e-10
          -2.45632e-10 -2.3048e-10 -2.12126e-11 2.27083e-10 2.29186e-10 5.83643e-11 -2.26821e-11 -1.19286e-11 1.01895e-13 -1.0254e-11 -3.95273e-11 -7.46043e-11
          -9.46343e-11 -6.44453e-11 5.66426e-12 1.13661e-11 -6.40682e-11 -6.08089e-11 2.52822e-11 4.41457e-11 2.07302e-11 8.53842e-12 -2.7762e-11 -6.04151e-11
          -4.67737e-11 -1.46351e-11 -6.82425e-12 -5.75302e-12
        </DataArray>
        <DataArray type="Float32" Name="z[0]" NumberOfComponents="1" format="ascii">
          0 0 0 0 0 0 0 0 0 0 0 0
          0 0 0 0 0 0 0 0 0 0 0 0
          0 0 0 0 0 0 0 0 0.367892 0.979405 0.967826 0.953841
          0.937167 0.918459 0.898254 0.876534 0.853354 0.829897 0.807254 0.784468 0.761317 0.739722 0.719141 0.697946
          0.677769 0.659299 0.640137 0.619959 0.601249 0.585177 0.569502 0.55311 0.537441 0.522339 0.507729 0.493607
          0.479989 0.466897 0.454386 0.442287 0.429948 0.417118 0.404908 0.394447 0.384642 0.374551 0.364517 0.354757
          0.345116 0.335202 0.325006 0.315843 0.308833 0.301827 0.29348 0.28508 0.277317 0.270094 0.263158 0.256389
          0.249719 0.243107 0.236829 0.231381 0.226427 0.22101 0.215783 0.211625 0.207836 0.204116 0.200945 0.198127
          0.196138 0.208369 0.419802 0.9232
        </DataArray>
        <DataArray type="Float32" Name="z[1]" NumberOfComponents="1" format="ascii">
          0 0 0 0 0 0 0 2.88322e-18 0 0 0 0
          0 0 0 0 0 0 0 0 0 0 0 0
          0 0 2.95029e-17 0 0 0 0 0 0.0261986 0.0209515 0.0314733 0.0451967
          0.061478 0.079912 0.100173 0.121825 0.143972 0.165734 0.187489 0.209943 0.231744 0.252136 0.273073 0.29425
          0.31358 0.332512 0.352398 0.370745 0.386166 0.401018 0.417875 0.434925 0.45032 0.46519 0.479499 0.493325
          0.506741 0.519886 0.53296 0.54626 0.55952 0.571059 0.579714 0.587527 0.597248 0.608142 0.619152 0.630451
          0.641949 0.652725 0.66058 0.664558 0.668964 0.678254 0.688531 0.696661 0.703926 0.710987 0.718315 0.725771
          0.733186 0.739793 0.744693 0.748837 0.755113 0.761967 0.765222 0.767621 0.771911 0.775657 0.779259 0.783406
          0.785786 0.773117 0.565987 0.0750524
        </DataArray>
        <DataArray type="Float32" Name="z[2]" NumberOfComponents="1" format="ascii">
          68.3513 68.3574 68.3634 68.3695 68.3756 68.3816 68.3877 68.3938 68.3998 68.4059 68.4119 68.418
          68.4241 68.4301 68.4362 68.4423 68.4483 68.4544 68.4605 68.4666 68.4726 68.4787 68.4848 68.4908
          68.4969 68.503 68.5091 68.5151 68.5212 68.5273 68.5334 68.3863 43.0521 1.15115 1.73108 2.48017
          3.37217 4.36734 5.39374 6.42289 7.53273 8.79891 10.153 11.5272 12.9841 14.5028 15.9413 17.2867
          18.5882 19.7492 20.7331 21.8048 23.2199 24.8068 26.2208 27.375 28.402 29.3587 30.2639 31.1261
          31.9386 32.667 33.2345 33.53 33.55 33.625 34.2899 35.5888 36.9727 38.0863 38.8861 39.2711
          39.1631 38.6925 38.489 39.4338 41.4005 42.95 43.5498 44.0102 44.5122 45.0494 45.4392 45.5958
          45.4875 45.2469 45.3074 45.9251 46.4591 46.056 45.9753 46.8937 47.621 48.0024 48.4602 48.2108
          47.7346 46.555 34.225 4.52912
        </DataArray>
        <DataArray type="Float32" Name="sat[0]" NumberOfComponents="1" format="ascii">
          0 0 0 0 0 0 0 0 0 0 0 0
          0 0 0 0 0 0 0 0 0 0 0 0
          0 0 0 0 0 0 0 0 0.368271 0.978601 0.967827 0.953804
          0.937163 0.918342 0.897734 0.875753 0.853113 0.830638 0.80823 0.785225 0.762599 0.741353 0.720015 0.698408
          0.67841 0.659298 0.63944 0.620149 0.603014 0.587163 0.570389 0.553334 0.537571 0.522378 0.507729 0.493579
          0.479901 0.466654 0.453808 0.441182 0.428534 0.41632 0.405453 0.395763 0.38569 0.375072 0.364543 0.354202
          0.344002 0.333965 0.324635 0.316962 0.310402 0.302426 0.293426 0.285056 0.277375 0.270133 0.263056 0.256112
          0.249301 0.242754 0.236817 0.231602 0.226291 0.22063 0.215857 0.211965 0.207991 0.204228 0.200926 0.197884
          0.195882 0.208304 0.419952 0.923123
        </DataArray>
        <DataArray type="Float32" Name="sat[1]" NumberOfComponents="1" format="ascii">
          0 0 0 0 0 0 0 2.96004e-18 0 0 0 0
          0 0 0 0 0 0 0 0 0 0 0 0
          0 0 3.02903e-17 0 0 0 0 0 0.0269259 0.0213995 0.0321733 0.0461959
          0.0628375 0.0816581 0.102266 0.124247 0.146887 0.169362 0.19177 0.214775 0.237401 0.258647 0.279985 0.301592
          0.32159 0.340702 0.36056 0.379851 0.396986 0.412837 0.429611 0.446666 0.462429 0.477622 0.492271 0.506421
          0.520099 0.533346 0.546192 0.558818 0.571466 0.58368 0.594547 0.604237 0.61431 0.624928 0.635457 0.645798
          0.655998 0.666035 0.675365 0.683038 0.689598 0.697574 0.706574 0.714944 0.722625 0.729867 0.736944 0.743888
          0.750699 0.757246 0.763183 0.768398 0.773709 0.77937 0.784144 0.788035 0.792009 0.795772 0.799074 0.802116
          0.804118 0.791696 0.580048 0.0768766
        </DataArray>
        <DataArray type="Float32" Name="sat[2]" NumberOfComponents="1" format="ascii">
          1 1 1 1 1 1 1 1 1 1 1 1
          1 1 1 1 1 1 1 1 1 1 1 1
          1 1 1 1 1 1 1 1 0.604803 0 0 0
          0 0 0 0 0 0 0 0 0 0 0 0
          0 0 0 0 0 0 0 0 0 0 0 0
          0 0 0 0 0 0 0 0 0 0 0 0
          0 0 0 0 0 0 0 0 0 0 0 0
          0 0 0 0 0 0 0 0 0 0 0 0
          0 0 0 0
        </DataArray>
        <DataArray type="Float32" Name="massFrac[0]" NumberOfComponents="1" format="ascii">
          0 0 0 0 0 0 0 0 0 0 0 0
          0 0 0 0 0 0 0 0 0 0 0 0
          0 0 0 0 0 0 0 0 0.87241 0.981333 0.971894 0.959571
          0.944886 0.928204 0.909855 0.890185 0.869793 0.849394 0.828918 0.807774 0.786831 0.767026 0.747042 0.726709
          0.707773 0.689599 0.67065 0.652118 0.6355 0.62002 0.603621 0.586914 0.571406 0.556401 0.541876 0.527792
          0.514129 0.500856 0.487956 0.475265 0.462537 0.450177 0.439072 0.429067 0.418646 0.407674 0.396797 0.386124
          0.375614 0.365266 0.35558 0.347491 0.340464 0.332002 0.32253 0.313699 0.30557 0.297884 0.290372 0.283004
          0.27578 0.268829 0.262488 0.256871 0.251157 0.24512 0.239994 0.235749 0.231429 0.227353 0.223765 0.2205
          0.218363 0.231822 0.453652 0.932303
        </DataArray>
        <DataArray type="Float32" Name="massFrac[1]" NumberOfComponents="1" format="ascii">
          0 0 0 0 0 0 0 4.88147e-17 0 0 0 0
          0 0 0 0 0 0 0 0 0 0 0 0
          0 0 4.98663e-16 0 0 0 0 0 0.0527419 0.0178216 0.0268312 0.0385998
          0.0526211 0.0685603 0.0861396 0.105033 0.124578 0.144004 0.163438 0.183524 0.203331 0.221949 0.240817 0.260095
          0.277996 0.295256 0.313425 0.331067 0.346507 0.360711 0.376004 0.39179 0.406455 0.420671 0.434444 0.447808
          0.46079 0.473453 0.485878 0.49832 0.511002 0.523217 0.533667 0.542552 0.551851 0.561934 0.57217 0.582539
          0.593137 0.603823 0.613548 0.620701 0.626075 0.633361 0.642381 0.650796 0.658472 0.66569 0.672869 0.680097
          0.687391 0.694489 0.700696 0.705751 0.711061 0.717431 0.722517 0.725952 0.729695 0.733449 0.736672 0.740164
          0.742675 0.730205 0.519233 0.0643433
        </DataArray>
        <DataArray type="Float32" Name="massFrac[2]" NumberOfComponents="1" format="ascii">
          1 1 1 1 1 1 1 1 1 1 1 1
          1 1 1 1 1 1 1 1 1 1 1 1
          1 1 1 1 1 1 1 1 0.0748483 0.000845616 0.00127446 0.00182923
          0.00249264 0.00323585 0.00400544 0.00478222 0.00562894 0.00660239 0.00764336 0.00870216 0.00983821 0.0110251 0.0121407 0.0131958
          0.0142311 0.0151443 0.0159248 0.0168153 0.0179932 0.0192698 0.0203752 0.0212963 0.0221386 0.0229277 0.0236799 0.0244002
          0.0250809 0.0256914 0.0261657 0.0264151 0.0264612 0.0266056 0.0272605 0.0283816 0.0295025 0.030392 0.0310336 0.031337
          0.0312493 0.0309112 0.0308724 0.0318074 0.0334611 0.0346364 0.0350886 0.0355048 0.0359583 0.0364259 0.0367584 0.0368983
          0.0368291 0.0366821 0.0368156 0.0373787 0.0377812 0.037449 0.0374883 0.0382989 0.0388761 0.0391988 0.0395628 0.0393365
          0.0389617 0.0379731 0.027115 0.00335322
        </DataArray>
        <DataArray type="Float32" Name="total fl. vol." NumberOfComponents="1" format="ascii">
          1 1 1 1 1 1 1 1 1 1 1 1
          1 1 1 1 1 1 1 1 1 1 1 1
          1 1 1 1 1 1 1 0.997766 0.99897 1.00082 0.999999 1.00004
          1 1.00013 1.00058 1.00089 1.00028 0.999108 0.998792 0.999037 0.998319 0.9978 0.998785 0.999338
          0.999055 1 1.00109 0.999693 0.997074 0.996617 0.998445 0.999597 0.999757 0.999925 1 1.00006
          1.00018 1.00052 1.00127 1.00251 1.0033 1.00192 0.998656 0.996676 0.997284 0.998611 0.999929 1.00157
          1.00324 1.00371 1.00114 0.996469 0.994947 0.998021 1.00018 1.00009 0.999792 0.999857 1.00039 1.00108
          1.00167 1.00145 1.00005 0.999046 1.0006 1.00172 0.99966 0.998393 0.999257 0.999452 1.0001 1.00123
          1.00131 1.00031 0.999643 1.00008
        </DataArray>
      </CellData>
      <Points>
        <DataArray type="Float32" Name="Coordinates" NumberOfComponents="3" format="ascii">
          0 0 0 1 0 0 0 1 0 1 1 0
          0 0 1 1 0 1 0 1 1 1 1 1
          0 0 2 1 0 2 0 1 2 1 1 2
          0 0 3 1 0 3 0 1 3 1 1 3
          0 0 4 1 0 4 0 1 4 1 1 4
          0 0 5 1 0 5 0 1 5 1 1 5
          0 0 6 1 0 6 0 1 6 1 1 6
          0 0 7 1 0 7 0 1 7 1 1 7
          0 0 8 1 0 8 0 1 8 1 1 8
          0 0 9 1 0 9 0 1 9 1 1 9
          0 0 10 1 0 10 0 1 10 1 1 10
          0 0 11 1 0 11 0 1 11 1 1 11
          0 0 12 1 0 12 0 1 12 1 1 12
          0 0 13 1 0 13 0 1 13 1 1 13
          0 0 14 1 0 14 0 1 14 1 1 14
          0 0 15 1 0 15 0 1 15 1 1 15
          0 0 16 1 0 16 0 1 16 1 1 16
          0 0 17 1 0 17 0 1 17 1 1 17
          0 0 18 1 0 18 0 1 18 1 1 18
          0 0 19 1 0 19 0 1 19 1 1 19
          0 0 20 1 0 20 0 1 20 1 1 20
          0 0 21 1 0 21 0 1 21 1 1 21
          0 0 22 1 0 22 0 1 22 1 1 22
          0 0 23 1 0 23 0 1 23 1 1 23
          0 0 24 1 0 24 0 1 24 1 1 24
          0 0 25 1 0 25 0 1 25 1 1 25
          0 0 26 1 0 26 0 1 26 1 1 26
          0 0 27 1 0 27 0 1 27 1 1 27
          0 0 28 1 0 28 0 1 28 1 1 28
          0 0 29 1 0 29 0 1 29 1 1 29
          0 0 30 1 0 30 0 1 30 1 1 30
          0 0 31 1 0 31 0 1 31 1 1 31
          0 0 32 1 0 32 0 1 32 1 1 32
          0 0 33 1 0 33 0 1 33 1 1 33
          0 0 34 1 0 34 0 1 34 1 1 34
          0 0 35 1 0 35 0 1 35 1 1 35
          0 0 36 1 0 36 0 1 36 1 1 36
          0 0 37 1 0 37 0 1 37 1 1 37
          0 0 38 1 0 38 0 1 38 1 1 38
          0 0 39 1 0 39 0 1 39 1 1 39
          0 0 40 1 0 40 0 1 40 1 1 40
          0 0 41 1 0 41 0 1 41 1 1 41
          0 0 42 1 0 42 0 1 42 1 1 42
          0 0 43 1 0 43 0 1 43 1 1 43
          0 0 44 1 0 44 0 1 44 1 1 44
          0 0 45 1 0 45 0 1 45 1 1 45
          0 0 46 1 0 46 0 1 46 1 1 46
          0 0 47 1 0 47 0 1 47 1 1 47
          0 0 48 1 0 48 0 1 48 1 1 48
          0 0 49 1 0 49 0 1 49 1 1 49
          0 0 50 1 0 50 0 1 50 1 1 50
          0 0 51 1 0 51 0 1 51 1 1 51
          0 0 52 1 0 52 0 1 52 1 1 52
          0 0 53 1 0 53 0 1 53 1 1 53
          0 0 54 1 0 54 0 1 54 1 1 54
          0 0 55 1 0 55 0 1 55 1 1 55
          0 0 56 1 0 56 0 1 56 1 1 56
          0 0 57 1 0 57 0 1 57 1 1 57
          0 0 58 1 0 58 0 1 58 1 1 58
          0 0 59 1 0 59 0 1 59 1 1 59
          0 0 60 1 0 60 0 1 60 1 1 60
          0 0 61 1 0 61 0 1 61 1 1 61
          0 0 62 1 0 62 0 1 62 1 1 62
          0 0 63 1 0 63 0 1 63 1 1 63
          0 0 64 1 0 64 0 1 64 1 1 64
          0 0 65 1 0 65 0 1 65 1 1 65
          0 0 66 1 0 66 0 1 66 1 1 66
          0 0 67 1 0 67 0 1 67 1 1 67
          0 0 68 1 0 68 0 1 68 1 1 68
          0 0 69 1 0 69 0 1 69 1 1 69
          0 0 70 1 0 70 0 1 70 1 1 70
          0 0 71 1 0 71 0 1 71 1 1 71
          0 0 72 1 0 72 0 1 72 1 1 72
          0 0 73 1 0 73 0 1 73 1 1 73
          0 0 74 1 0 74 0 1 74 1 1 74
          0 0 75 1 0 75 0 1 75 1 1 75
          0 0 76 1 0 76 0 1 76 1 1 76
          0 0 77 1 0 77 0 1 77 1 1 77
          0 0 78 1 0 78 0 1 78 1 1 78
          0 0 79 1 0 79 0 1 79 1 1 79
          0 0 80 1 0 80 0 1 80 1 1 80
          0 0 81 1 0 81 0 1 81 1 1 81
          0 0 82 1 0 82 0 1 82 1 1 82
          0 0 83 1 0 83 0 1 83 1 1 83
          0 0 84 1 0 84 0 1 84 1 1 84
          0 0 85 1 0 85 0 1 85 1 1 85
          0 0 86 1 0 86 0 1 86 1 1 86
          0 0 87 1 0 87 0 1 87 1 1 87
          0 0 88 1 0 88 0 1 88 1 1 88
          0 0 89 1 0 89 0 1 89 1 1 89
          0 0 90 1 0 90 0 1 90 1 1 90
          0 0 91 1 0 91 0 1 91 1 1 91
          0 0 92 1 0 92 0 1 92 1 1 92
          0 0 93 1 0 93 0 1 93 1 1 93
          0 0 94 1 0 94 0 1 94 1 1 94
          0 0 95 1 0 95 0 1 95 1 1 95
          0 0 96 1 0 96 0 1 96 1 1 96
          0 0 97 1 0 97 0 1 97 1 1 97
          0 0 98 1 0 98 0 1 98 1 1 98
          0 0 99 1 0 99 0 1 99 1 1 99
          0 0 100 1 0 100 0 1 100 1 1 100
        </DataArray>
      </Points>
      <Cells>
        <DataArray type="Int32" Name="connectivity" NumberOfComponents="1" format="ascii">
          0 1 3 2 4 5 7 6 4 5 7 6
          8 9 11 10 8 9 11 10 12 13 15 14
          12 13 15 14 16 17 19 18 16 17 19 18
          20 21 23 22 20 21 23 22 24 25 27 26
          24 25 27 26 28 29 31 30 28 29 31 30
          32 33 35 34 32 33 35 34 36 37 39 38
          36 37 39 38 40 41 43 42 40 41 43 42
          44 45 47 46 44 45 47 46 48 49 51 50
          48 49 51 50 52 53 55 54 52 53 55 54
          56 57 59 58 56 57 59 58 60 61 63 62
          60 61 63 62 64 65 67 66 64 65 67 66
          68 69 71 70 68 69 71 70 72 73 75 74
          72 73 75 74 76 77 79 78 76 77 79 78
          80 81 83 82 80 81 83 82 84 85 87 86
          84 85 87 86 88 89 91 90 88 89 91 90
          92 93 95 94 92 93 95 94 96 97 99 98
          96 97 99 98 100 101 103 102 100 101 103 102
          104 105 107 106 104 105 107 106 108 109 111 110
          108 109 111 110 112 113 115 114 112 113 115 114
          116 117 119 118 116 117 119 118 120 121 123 122
          120 121 123 122 124 125 127 126 124 125 127 126
          128 129 131 130 128 129 131 130 132 133 135 134
          132 133 135 134 136 137 139 138 136 137 139 138
          140 141 143 142 140 141 143 142 144 145 147 146
          144 145 147 146 148 149 151 150 148 149 151 150
          152 153 155 154 152 153 155 154 156 157 159 158
          156 157 159 158 160 161 163 162 160 161 163 162
          164 165 167 166 164 165 167 166 168 169 171 170
          168 169 171 170 172 173 175 174 172 173 175 174
          176 177 179 178 176 177 179 178 180 181 183 182
          180 181 183 182 184 185 187 186 184 185 187 186
          188 189 191 190 188 189 191 190 192 193 195 194
          192 193 195 194 196 197 199 198 196 197 199 198
          200 201 203 202 200 201 203 202 204 205 207 206
          204 205 207 206 208 209 211 210 208 209 211 210
          212 213 215 214 212 213 215 214 216 217 219 218
          216 217 219 218 220 221 223 222 220 221 223 222
          224 225 227 226 224 225 227 226 228 229 231 230
          228 229 231 230 232 233 235 234 232 233 235 234
          236 237 239 238 236 237 239 238 240 241 243 242
          240 241 243 242 244 245 247 246 244 245 247 246
          248 249 251 250 248 249 251 250 252 253 255 254
          252 253 255 254 256 257 259 258 256 257 259 258
          260 261 263 262 260 261 263 262 264 265 267 266
          264 265 267 266 268 269 271 270 268 269 271 270
          272 273 275 274 272 273 275 274 276 277 279 278
          276 277 279 278 280 281 283 282 280 281 283 282
          284 285 287 286 284 285 287 286 288 289 291 290
          288 289 291 290 292 293 295 294 292 293 295 294
          296 297 299 298 296 297 299 298 300 301 303 302
          300 301 303 302 304 305 307 306 304 305 307 306
          308 309 311 310 308 309 311 310 312 313 315 314
          312 313 315 314 316 317 319 318 316 317 319 318
          320 321 323 322 320 321 323 322 324 325 327 326
          324 325 327 326 328 329 331 330 328 329 331 330
          332 333 335 334 332 333 335 334 336 337 339 338
          336 337 339 338 340 341 343 342 340 341 343 342
          344 345 347 346 344 345 347 346 348 349 351 350
          348 349 351 350 352 353 355 354 352 353 355 354
          356 357 359 358 356 357 359 358 360 361 363 362
          360 361 363 362 364 365 367 366 364 365 367 366
          368 369 371 370 368 369 371 370 372 373 375 374
          372 373 375 374 376 377 379 378 376 377 379 378
          380 381 383 382 380 381 383 382 384 385 387 386
          384 385 387 386 388 389 391 390 388 389 391 390
          392 393 395 394 392 393 395 394 396 397 399 398
          396 397 399 398 400 401 403 402
        </DataArray>
        <DataArray type="Int32" Name="offsets" NumberOfComponents="1" format="ascii">
          8 16 24 32 40 48 56 64 72 80 88 96
          104 112 120 128 136 144 152 160 168 176 184 192
          200 208 216 224 232 240 248 256 264 272 280 288
          296 304 312 320 328 336 344 352 360 368 376 384
          392 400 408 416 424 432 440 448 456 464 472 480
          488 496 504 512 520 528 536 544 552 560 568 576
          584 592 600 608 616 624 632 640 648 656 664 672
          680 688 696 704 712 720 728 736 744 752 760 768
          776 784 792 800
        </DataArray>
        <DataArray type="UInt8" Name="types" NumberOfComponents="1" format="ascii">
          12 12 12 12 12 12 12 12 12 12 12 12
          12 12 12 12 12 12 12 12 12 12 12 12
          12 12 12 12 12 12 12 12 12 12 12 12
          12 12 12 12 12 12 12 12 12 12 12 12
          12 12 12 12 12 12 12 12 12 12 12 12
          12 12 12 12 12 12 12 12 12 12 12 12
          12 12 12 12 12 12 12 12 12 12 12 12
          12 12 12 12 12 12 12 12 12 12 12 12
          12 12 12 12
        </DataArray>
      </Cells>
    </Piece>
  </UnstructuredGrid>
</VTKFile>
