<?xml version="1.0"?>
<VTKFile type="UnstructuredGrid" version="0.1" byte_order="LittleEndian">
  <UnstructuredGrid>
    <Piece NumberOfCells="100" NumberOfPoints="404">
      <CellData Scalars="pressure[0]">
        <DataArray type="Float32" Name="pressure[0]" NumberOfComponents="1" format="ascii">
          5.76722e+06 5.76773e+06 5.76824e+06 5.76875e+06 5.76926e+06 5.76977e+06 5.77028e+06 5.77079e+06 5.7713e+06 5.77181e+06 5.77232e+06 5.77283e+06
          5.77334e+06 5.77385e+06 5.77436e+06 5.77487e+06 5.77538e+06 5.7759e+06 5.77641e+06 5.77692e+06 5.77743e+06 5.77794e+06 5.77845e+06 5.77896e+06
          5.77947e+06 5.77998e+06 5.78049e+06 5.78101e+06 5.78152e+06 5.78203e+06 5.78254e+06 5.78305e+06 5.78363e+06 5.79249e+06 5.80135e+06 5.81024e+06
          5.81995e+06 5.82989e+06 5.83983e+06 5.84975e+06 5.85967e+06 5.86958e+06 5.87948e+06 5.88936e+06 5.89924e+06 5.90911e+06 5.91896e+06 5.92881e+06
          5.93864e+06 5.94847e+06 5.95828e+06 5.96809e+06 5.97788e+06 5.98766e+06 5.99744e+06 6.0072e+06 6.01696e+06 6.02671e+06 6.03644e+06 6.04617e+06
          6.05589e+06 6.0656e+06 6.0753e+06 6.085e+06 6.09468e+06 6.10435e+06 6.11402e+06 6.12368e+06 6.13333e+06 6.14297e+06 6.15261e+06 6.16223e+06
          6.17185e+06 6.18146e+06 6.19106e+06 6.20065e+06 6.21023e+06 6.21981e+06 6.22937e+06 6.23893e+06 6.24848e+06 6.25802e+06 6.26755e+06 6.27708e+06
          6.28659e+06 6.2961e+06 6.3056e+06 6.3151e+06 6.32459e+06 6.3341e+06 6.34377e+06 6.35379e+06 6.36395e+06 6.37412e+06 6.3843e+06 6.39448e+06
          6.40466e+06 6.41484e+06 6.42502e+06 6.4352e+06
        </DataArray>
        <DataArray type="Float32" Name="pressure[1]" NumberOfComponents="1" format="ascii">
          5.76722e+06 5.76773e+06 5.76824e+06 5.76875e+06 5.76926e+06 5.76977e+06 5.77028e+06 5.77079e+06 5.7713e+06 5.77181e+06 5.77232e+06 5.77283e+06
          5.77334e+06 5.77385e+06 5.77436e+06 5.77487e+06 5.77538e+06 5.7759e+06 5.77641e+06 5.77692e+06 5.77743e+06 5.77794e+06 5.77845e+06 5.77896e+06
          5.77947e+06 5.77998e+06 5.78049e+06 5.78101e+06 5.78152e+06 5.78203e+06 5.78254e+06 5.78305e+06 5.78363e+06 5.79249e+06 5.80135e+06 5.81024e+06
          5.81995e+06 5.82989e+06 5.83983e+06 5.84975e+06 5.85967e+06 5.86958e+06 5.87948e+06 5.88936e+06 5.89924e+06 5.90911e+06 5.91896e+06 5.92881e+06
          5.93864e+06 5.94847e+06 5.95828e+06 5.96809e+06 5.97788e+06 5.98766e+06 5.99744e+06 6.0072e+06 6.01696e+06 6.02671e+06 6.03644e+06 6.04617e+06
          6.05589e+06 6.0656e+06 6.0753e+06 6.085e+06 6.09468e+06 6.10435e+06 6.11402e+06 6.12368e+06 6.13333e+06 6.14297e+06 6.15261e+06 6.16223e+06
          6.17185e+06 6.18146e+06 6.19106e+06 6.20065e+06 6.21023e+06 6.21981e+06 6.22937e+06 6.23893e+06 6.24848e+06 6.25802e+06 6.26755e+06 6.27708e+06
          6.28659e+06 6.2961e+06 6.3056e+06 6.3151e+06 6.32459e+06 6.3341e+06 6.34377e+06 6.35379e+06 6.36395e+06 6.37412e+06 6.3843e+06 6.39448e+06
          6.40466e+06 6.41484e+06 6.42502e+06 6.4352e+06
        </DataArray>
        <DataArray type="Float32" Name="pressure[2]" NumberOfComponents="1" format="ascii">
          5.76722e+06 5.76773e+06 5.76824e+06 5.76875e+06 5.76926e+06 5.76977e+06 5.77028e+06 5.77079e+06 5.7713e+06 5.77181e+06 5.77232e+06 5.77283e+06
          5.77334e+06 5.77385e+06 5.77436e+06 5.77487e+06 5.77538e+06 5.7759e+06 5.77641e+06 5.77692e+06 5.77743e+06 5.77794e+06 5.77845e+06 5.77896e+06
          5.77947e+06 5.77998e+06 5.78049e+06 5.78101e+06 5.78152e+06 5.78203e+06 5.78254e+06 5.78305e+06 5.78363e+06 5.79249e+06 5.80135e+06 5.81024e+06
          5.81995e+06 5.82989e+06 5.83983e+06 5.84975e+06 5.85967e+06 5.86958e+06 5.87948e+06 5.88936e+06 5.89924e+06 5.90911e+06 5.91896e+06 5.92881e+06
          5.93864e+06 5.94847e+06 5.95828e+06 5.96809e+06 5.97788e+06 5.98766e+06 5.99744e+06 6.0072e+06 6.01696e+06 6.02671e+06 6.03644e+06 6.04617e+06
          6.05589e+06 6.0656e+06 6.0753e+06 6.085e+06 6.09468e+06 6.10435e+06 6.11402e+06 6.12368e+06 6.13333e+06 6.14297e+06 6.15261e+06 6.16223e+06
          6.17185e+06 6.18146e+06 6.19106e+06 6.20065e+06 6.21023e+06 6.21981e+06 6.22937e+06 6.23893e+06 6.24848e+06 6.25802e+06 6.26755e+06 6.27708e+06
          6.28659e+06 6.2961e+06 6.3056e+06 6.3151e+06 6.32459e+06 6.3341e+06 6.34377e+06 6.35379e+06 6.36395e+06 6.37412e+06 6.3843e+06 6.39448e+06
          6.40466e+06 6.41484e+06 6.42502e+06 6.4352e+06
        </DataArray>
        <DataArray type="Float32" Name="velocity[0]" NumberOfComponents="1" format="ascii">
          0 0 0 0 0 0 0 0 0 0 0 0
          0 0 0 0 0 0 0 0 0 0 0 0
          0 0 0 0 0 0 0 0 0 0 0 0
          0 0 0 0 0 0 0 0 0 0 0 0
          0 0 0 0 0 0 0 0 0 0 0 0
          0 0 0 0 0 0 0 0 0 0 0 0
          0 0 0 0 0 0 0 0 0 0 0 0
          0 0 0 0 0 0 0 0 0 0 0 0
          0 0 0 0
        </DataArray>
        <DataArray type="Float32" Name="velocity[1]" NumberOfComponents="1" format="ascii">
          0 0 0 0 0 0 0 0 0 0 0 0
          0 0 0 0 0 0 0 0 0 0 0 0
          0 0 0 0 0 0 0 0 0 0 0 0
          0 0 0 0 0 0 0 0 0 0 0 0
          0 0 0 0 0 0 0 0 0 0 0 0
          0 0 0 0 0 0 0 0 0 0 0 0
          0 0 0 0 0 0 0 0 0 0 0 0
          0 0 0 0 0 0 0 0 0 0 0 0
          0 0 0 0
        </DataArray>
        <DataArray type="Float32" Name="velocity[2]" NumberOfComponents="1" format="ascii">
          1.16114e-12 3.4833e-12 5.80524e-12 8.12695e-12 1.04484e-11 1.27695e-11 1.50904e-11 1.74109e-11 1.97312e-11 2.2051e-11 2.43705e-11 2.66897e-11
          2.90084e-11 3.13267e-11 3.36446e-11 3.5962e-11 3.82789e-11 4.05954e-11 4.29114e-11 4.52269e-11 4.75419e-11 4.98563e-11 5.21701e-11 5.44834e-11
          5.6796e-11 5.91081e-11 6.14195e-11 6.37303e-11 6.60404e-11 6.83498e-11 7.06586e-11 6.4257e-11 5.78164e-11 5.48885e-11 1.92656e-11 -2.21637e-11
          -1.19977e-11 1.90206e-11 2.81855e-11 2.1812e-11 1.10077e-11 -2.64473e-12 -1.78775e-11 -3.35018e-11 -4.85849e-11 -6.2394e-11 -7.41643e-11 -8.2871e-11
          -8.72071e-11 -8.58746e-11 -7.81429e-11 -6.44681e-11 -4.68685e-11 -2.87812e-11 -1.4288e-11 -6.86616e-12 -8.07971e-12 -1.6755e-11 -2.90759e-11 -3.96996e-11
          -4.35627e-11 -3.77238e-11 -2.25321e-11 -1.63607e-12 1.92222e-11 3.42142e-11 3.94549e-11 3.42047e-11 2.07372e-11 3.02751e-12 -1.49562e-11 -3.04403e-11
          -4.20686e-11 -4.9419e-11 -5.24552e-11 -5.13568e-11 -4.66712e-11 -3.94106e-11 -3.08413e-11 -2.20928e-11 -1.39503e-11 -7.03534e-12 -2.16202e-12 -3.77683e-13
          -2.41604e-12 -7.87459e-12 -1.48422e-11 -2.04747e-11 -2.23365e-11 -1.92528e-11 -1.25644e-11 -5.45208e-12 -1.21451e-12 -1.31318e-13 -1.00704e-14 -3.91504e-16
          9.028e-17 2.62421e-17 -9.45854e-18 -4.66171e-18
        </DataArray>
        <DataArray type="Float32" Name="z[0]" NumberOfComponents="1" format="ascii">
          0 0 0 0 0 0 0 0 0 0 0 0
          0 0 0 0 0 0 0 0 0 0 0 0
          0 0 0 0 0 0 0 0 0 0 3.31083e-07 0.00254693
          0.324581 0.646803 0.655741 0.645 0.633847 0.622862 0.612028 0.60132 0.590726 0.580248 0.569891 0.559667
          0.549588 0.53967 0.52994 0.520432 0.511189 0.502248 0.493634 0.485344 0.477341 0.469561 0.461928 0.454376
          0.446869 0.439414 0.432053 0.424847 0.417853 0.411098 0.404566 0.398207 0.391951 0.385735 0.37952 0.373297
          0.367081 0.360895 0.354766 0.348717 0.342767 0.336933 0.331228 0.325653 0.320206 0.314878 0.309664 0.304557
          0.299546 0.29462 0.289785 0.285295 0.283538 0.305118 0.472139 0.831077 0.977943 0.997858 0.999825 0.999988
          0.999999 1 1 1
        </DataArray>
        <DataArray type="Float32" Name="z[1]" NumberOfComponents="1" format="ascii">
          0 0 0 0 0 0 0 2.88322e-18 0 0 0 0
          0 0 0 0 0 0 0 0 0 0 0 0
          0 0 2.95029e-17 0 0 0 0 0 0.38599 0.978216 0.976456 0.97223
          0.656779 0.343306 0.334781 0.345254 0.356169 0.366967 0.377659 0.388257 0.398764 0.40917 0.419459 0.429609
          0.439587 0.449353 0.45886 0.468064 0.476932 0.485456 0.493663 0.501613 0.509382 0.517045 0.524651 0.532201
          0.539654 0.546938 0.553979 0.560736 0.567215 0.573478 0.579621 0.585742 0.591914 0.598164 0.604479 0.61082
          0.61714 0.623396 0.62955 0.635571 0.641433 0.647121 0.652638 0.657996 0.663213 0.668307 0.673302 0.678227
          0.683122 0.688014 0.692885 0.697442 0.699298 0.678302 0.515274 0.164928 0.0215399 0.00209226 0.000170682 1.14404e-05
          5.89774e-07 1.90362e-08 0 0
        </DataArray>
        <DataArray type="Float32" Name="z[2]" NumberOfComponents="1" format="ascii">
          68.3448 68.3509 68.3569 68.363 68.369 68.3751 68.3812 68.3872 68.3933 68.3994 68.4054 68.4115
          68.4175 68.4236 68.4297 68.4357 68.4418 68.4479 68.4539 68.46 68.4661 68.4722 68.4782 68.4843
          68.4904 68.4964 68.5025 68.5086 68.5147 68.5207 68.5268 65.548 65.4937 53.7815 56.5346 57.8637
          39.7901 21.0045 20.6183 21.3866 22.1693 22.9241 23.6451 24.3291 24.9738 25.5783 26.143 26.6702
          27.1653 27.6368 28.097 28.5598 29.0379 29.5394 30.0642 30.6029 31.1385 31.6518 32.1275 32.5606
          32.9604 33.3486 33.7535 34.2012 34.7058 35.2645 35.8572 36.4529 37.019 37.5302 37.9731 38.3462
          38.6567 38.9161 39.1386 39.3398 39.536 39.742 39.9693 40.2245 40.5096 40.8232 41.1605 41.5115
          41.8598 42.1845 42.4655 42.6796 42.6945 41.3117 31.322 10.0119 1.30594 0.126692 0.0103233 0.000691499
          3.57595e-05 1.19344e-06 0 0
        </DataArray>
        <DataArray type="Float32" Name="sat[0]" NumberOfComponents="1" format="ascii">
          0 0 0 0 0 0 0 0 0 0 0 0
          0 0 0 0 0 0 0 0 0 0 0 0
          0 0 0 0 0 0 0 0 0 0 3.31124e-07 0.0025494
          0.325186 0.647456 0.656229 0.645434 0.634208 0.623129 0.612188 0.601371 0.590671 0.580094 0.569653 0.559363
          0.549245 0.539323 0.529629 0.520196 0.511055 0.502226 0.493707 0.485471 0.47747 0.469643 0.461932 0.454305
          0.446757 0.439316 0.432027 0.424935 0.418064 0.411404 0.404915 0.398536 0.392208 0.385888 0.379563 0.373242
          0.36695 0.360713 0.354558 0.348506 0.342575 0.336776 0.331114 0.325585 0.32018 0.314889 0.309701 0.304606
          0.299587 0.294633 0.289758 0.285231 0.283451 0.305028 0.47205 0.831007 0.977929 0.997856 0.999825 0.999988
          0.999999 1 1 1
        </DataArray>
        <DataArray type="Float32" Name="sat[1]" NumberOfComponents="1" format="ascii">
          0 0 0 0 0 0 0 2.96003e-18 0 0 0 0
          0 0 0 0 0 0 0 0 0 0 0 0
          0 0 3.02902e-17 0 0 0 0 0 0.396299 1 1 0.997451
          0.674814 0.352544 0.343771 0.354566 0.365792 0.376871 0.387812 0.398629 0.409329 0.419906 0.430347 0.440637
          0.450755 0.460677 0.470371 0.479804 0.488945 0.497774 0.506293 0.514529 0.52253 0.530357 0.538068 0.545695
          0.553243 0.560684 0.567973 0.575065 0.581936 0.588596 0.595085 0.601464 0.607792 0.614112 0.620437 0.626758
          0.63305 0.639287 0.645442 0.651494 0.657425 0.663224 0.668886 0.674415 0.67982 0.685111 0.690299 0.695394
          0.700413 0.705367 0.710242 0.714769 0.716549 0.694972 0.52795 0.168993 0.0220709 0.00214375 0.000174873 1.17208e-05
          6.04285e-07 1.95269e-08 0 0
        </DataArray>
        <DataArray type="Float32" Name="sat[2]" NumberOfComponents="1" format="ascii">
          1 1 1 1 1 1 1 1 1 1 1 1
          1 1 1 1 1 1 1 1 1 1 1 1
          1 1 1 1 1 1 1 1 0.603701 0 0 0
          0 0 0 0 0 0 0 0 0 0 0 0
          0 0 0 0 0 0 0 0 0 0 0 0
          0 0 0 0 0 0 0 0 0 0 0 0
          0 0 0 0 0 0 0 0 0 0 0 0
          0 0 0 0 0 0 0 0 0 0 0 0
          0 0 0 0
        </DataArray>
        <DataArray type="Float32" Name="massFrac[0]" NumberOfComponents="1" format="ascii">
          0 0 0 0 0 0 0 0 0 0 0 0
          0 0 0 0 0 0 0 0 0 0 0 0
          0 0 0 0 0 0 0 0 0 0 3.8038e-07 0.00292638
          0.356166 0.67824 0.686592 0.676257 0.66548 0.654816 0.644259 0.633793 0.623417 0.613136 0.602961 0.59291
          0.583002 0.57326 0.563716 0.554401 0.545347 0.536574 0.528083 0.519852 0.511836 0.503979 0.496228 0.488547
          0.480935 0.473414 0.466029 0.458822 0.451817 0.445007 0.438355 0.431805 0.425299 0.418797 0.412286 0.405775
          0.399289 0.392853 0.386493 0.38023 0.374081 0.368057 0.362163 0.356395 0.350744 0.3452 0.339755 0.334396
          0.329112 0.32389 0.318748 0.31397 0.312094 0.334837 0.506294 0.849398 0.980702 0.99813 0.999848 0.99999
          0.999999 1 1 1
        </DataArray>
        <DataArray type="Float32" Name="massFrac[1]" NumberOfComponents="1" format="ascii">
          0 0 0 0 0 0 0 4.88194e-17 0 0 0 0
          0 0 0 0 0 0 0 0 0 0 0 0
          0 0 4.98711e-16 0 0 0 0 0 0.872195 0.954672 0.95238 0.948331
          0.611823 0.305612 0.29758 0.307304 0.317456 0.327515 0.337493 0.347407 0.35726 0.367049 0.37676 0.386375
          0.395871 0.405217 0.414372 0.423294 0.431942 0.440289 0.448337 0.456117 0.463685 0.471115 0.47847 0.485786
          0.493059 0.500245 0.507279 0.514099 0.520671 0.527006 0.533161 0.539215 0.545252 0.55133 0.557471 0.563666
          0.569884 0.57609 0.582247 0.588322 0.594286 0.600115 0.605797 0.611331 0.616724 0.621988 0.627137 0.632188
          0.63717 0.642111 0.647007 0.651595 0.653453 0.631926 0.469081 0.1431 0.0183376 0.00177669 0.000144902 9.71223e-06
          5.00683e-07 1.61606e-08 0 0
        </DataArray>
        <DataArray type="Float32" Name="massFrac[2]" NumberOfComponents="1" format="ascii">
          1 1 1 1 1 1 1 1 1 1 1 1
          1 1 1 1 1 1 1 1 1 1 1 1
          1 1 1 1 1 1 1 1 0.127805 0.0453276 0.0476192 0.0487424
          0.0320105 0.0161477 0.0158273 0.0164392 0.0170644 0.0176688 0.0182481 0.0187999 0.0193225 0.0198154 0.0202787 0.0207145
          0.0211268 0.0215228 0.0219119 0.022305 0.0227114 0.0231367 0.0235795 0.0240314 0.0244787 0.0249062 0.0253029 0.0256668
          0.0260067 0.026341 0.0266921 0.0270794 0.0275123 0.0279864 0.0284839 0.02898 0.0294492 0.0298732 0.0302431 0.0305591
          0.0308274 0.0310574 0.0312602 0.031448 0.0316335 0.0318279 0.0320399 0.0322741 0.0325317 0.0328113 0.0331088 0.0334156
          0.0337182 0.0339998 0.0342448 0.0344351 0.0344535 0.0332373 0.0246247 0.00750194 0.000960139 9.29086e-05 7.5686e-06 5.06967e-07
          2.62168e-08 8.74956e-10 0 0
        </DataArray>
        <DataArray type="Float32" Name="total fl. vol." NumberOfComponents="1" format="ascii">
          1 1 1 1 1 1 1 1 1 1 1 1
          1 1 1 1 1 1 1 1 1 1 1 1
          1 1 1 1 1 1 1 0.956445 0.999991 0.999978 0.999876 0.999029
          0.998137 0.998992 0.999257 0.999328 0.999432 0.999573 0.999738 0.999916 1.00009 1.00026 1.00042 1.00054
          1.00063 1.00064 1.00059 1.00046 1.00026 1.00004 0.999853 0.999738 0.999729 0.999826 0.99999 1.00016
          1.00025 1.00022 1.00006 0.999794 0.999497 0.999256 0.999139 0.999175 0.999347 0.999604 0.999887 1.00015
          1.00036 1.0005 1.00059 1.0006 1.00056 1.00047 1.00034 1.00021 1.00008 0.999965 0.999879 0.999839
          0.999863 0.999956 1.00009 1.00023 1.0003 1.0003 1.00019 1.00008 1.00001 1 1 1
          1 1 1 1
        </DataArray>
      </CellData>
      <Points>
        <DataArray type="Float32" Name="Coordinates" NumberOfComponents="3" format="ascii">
          0 0 0 1 0 0 0 1 0 1 1 0
          0 0 1 1 0 1 0 1 1 1 1 1
          0 0 2 1 0 2 0 1 2 1 1 2
          0 0 3 1 0 3 0 1 3 1 1 3
          0 0 4 1 0 4 0 1 4 1 1 4
          0 0 5 1 0 5 0 1 5 1 1 5
          0 0 6 1 0 6 0 1 6 1 1 6
          0 0 7 1 0 7 0 1 7 1 1 7
          0 0 8 1 0 8 0 1 8 1 1 8
          0 0 9 1 0 9 0 1 9 1 1 9
          0 0 10 1 0 10 0 1 10 1 1 10
          0 0 11 1 0 11 0 1 11 1 1 11
          0 0 12 1 0 12 0 1 12 1 1 12
          0 0 13 1 0 13 0 1 13 1 1 13
          0 0 14 1 0 14 0 1 14 1 1 14
          0 0 15 1 0 15 0 1 15 1 1 15
          0 0 16 1 0 16 0 1 16 1 1 16
          0 0 17 1 0 17 0 1 17 1 1 17
          0 0 18 1 0 18 0 1 18 1 1 18
          0 0 19 1 0 19 0 1 19 1 1 19
          0 0 20 1 0 20 0 1 20 1 1 20
          0 0 21 1 0 21 0 1 21 1 1 21
          0 0 22 1 0 22 0 1 22 1 1 22
          0 0 23 1 0 23 0 1 23 1 1 23
          0 0 24 1 0 24 0 1 24 1 1 24
          0 0 25 1 0 25 0 1 25 1 1 25
          0 0 26 1 0 26 0 1 26 1 1 26
          0 0 27 1 0 27 0 1 27 1 1 27
          0 0 28 1 0 28 0 1 28 1 1 28
          0 0 29 1 0 29 0 1 29 1 1 29
          0 0 30 1 0 30 0 1 30 1 1 30
          0 0 31 1 0 31 0 1 31 1 1 31
          0 0 32 1 0 32 0 1 32 1 1 32
          0 0 33 1 0 33 0 1 33 1 1 33
          0 0 34 1 0 34 0 1 34 1 1 34
          0 0 35 1 0 35 0 1 35 1 1 35
          0 0 36 1 0 36 0 1 36 1 1 36
          0 0 37 1 0 37 0 1 37 1 1 37
          0 0 38 1 0 38 0 1 38 1 1 38
          0 0 39 1 0 39 0 1 39 1 1 39
          0 0 40 1 0 40 0 1 40 1 1 40
          0 0 41 1 0 41 0 1 41 1 1 41
          0 0 42 1 0 42 0 1 42 1 1 42
          0 0 43 1 0 43 0 1 43 1 1 43
          0 0 44 1 0 44 0 1 44 1 1 44
          0 0 45 1 0 45 0 1 45 1 1 45
          0 0 46 1 0 46 0 1 46 1 1 46
          0 0 47 1 0 47 0 1 47 1 1 47
          0 0 48 1 0 48 0 1 48 1 1 48
          0 0 49 1 0 49 0 1 49 1 1 49
          0 0 50 1 0 50 0 1 50 1 1 50
          0 0 51 1 0 51 0 1 51 1 1 51
          0 0 52 1 0 52 0 1 52 1 1 52
          0 0 53 1 0 53 0 1 53 1 1 53
          0 0 54 1 0 54 0 1 54 1 1 54
          0 0 55 1 0 55 0 1 55 1 1 55
          0 0 56 1 0 56 0 1 56 1 1 56
          0 0 57 1 0 57 0 1 57 1 1 57
          0 0 58 1 0 58 0 1 58 1 1 58
          0 0 59 1 0 59 0 1 59 1 1 59
          0 0 60 1 0 60 0 1 60 1 1 60
          0 0 61 1 0 61 0 1 61 1 1 61
          0 0 62 1 0 62 0 1 62 1 1 62
          0 0 63 1 0 63 0 1 63 1 1 63
          0 0 64 1 0 64 0 1 64 1 1 64
          0 0 65 1 0 65 0 1 65 1 1 65
          0 0 66 1 0 66 0 1 66 1 1 66
          0 0 67 1 0 67 0 1 67 1 1 67
          0 0 68 1 0 68 0 1 68 1 1 68
          0 0 69 1 0 69 0 1 69 1 1 69
          0 0 70 1 0 70 0 1 70 1 1 70
          0 0 71 1 0 71 0 1 71 1 1 71
          0 0 72 1 0 72 0 1 72 1 1 72
          0 0 73 1 0 73 0 1 73 1 1 73
          0 0 74 1 0 74 0 1 74 1 1 74
          0 0 75 1 0 75 0 1 75 1 1 75
          0 0 76 1 0 76 0 1 76 1 1 76
          0 0 77 1 0 77 0 1 77 1 1 77
          0 0 78 1 0 78 0 1 78 1 1 78
          0 0 79 1 0 79 0 1 79 1 1 79
          0 0 80 1 0 80 0 1 80 1 1 80
          0 0 81 1 0 81 0 1 81 1 1 81
          0 0 82 1 0 82 0 1 82 1 1 82
          0 0 83 1 0 83 0 1 83 1 1 83
          0 0 84 1 0 84 0 1 84 1 1 84
          0 0 85 1 0 85 0 1 85 1 1 85
          0 0 86 1 0 86 0 1 86 1 1 86
          0 0 87 1 0 87 0 1 87 1 1 87
          0 0 88 1 0 88 0 1 88 1 1 88
          0 0 89 1 0 89 0 1 89 1 1 89
          0 0 90 1 0 90 0 1 90 1 1 90
          0 0 91 1 0 91 0 1 91 1 1 91
          0 0 92 1 0 92 0 1 92 1 1 92
          0 0 93 1 0 93 0 1 93 1 1 93
          0 0 94 1 0 94 0 1 94 1 1 94
          0 0 95 1 0 95 0 1 95 1 1 95
          0 0 96 1 0 96 0 1 96 1 1 96
          0 0 97 1 0 97 0 1 97 1 1 97
          0 0 98 1 0 98 0 1 98 1 1 98
          0 0 99 1 0 99 0 1 99 1 1 99
          0 0 100 1 0 100 0 1 100 1 1 100
        </DataArray>
      </Points>
      <Cells>
        <DataArray type="Int32" Name="connectivity" NumberOfComponents="1" format="ascii">
          0 1 3 2 4 5 7 6 4 5 7 6
          8 9 11 10 8 9 11 10 12 13 15 14
          12 13 15 14 16 17 19 18 16 17 19 18
          20 21 23 22 20 21 23 22 24 25 27 26
          24 25 27 26 28 29 31 30 28 29 31 30
          32 33 35 34 32 33 35 34 36 37 39 38
          36 37 39 38 40 41 43 42 40 41 43 42
          44 45 47 46 44 45 47 46 48 49 51 50
          48 49 51 50 52 53 55 54 52 53 55 54
          56 57 59 58 56 57 59 58 60 61 63 62
          60 61 63 62 64 65 67 66 64 65 67 66
          68 69 71 70 68 69 71 70 72 73 75 74
          72 73 75 74 76 77 79 78 76 77 79 78
          80 81 83 82 80 81 83 82 84 85 87 86
          84 85 87 86 88 89 91 90 88 89 91 90
          92 93 95 94 92 93 95 94 96 97 99 98
          96 97 99 98 100 101 103 102 100 101 103 102
          104 105 107 106 104 105 107 106 108 109 111 110
          108 109 111 110 112 113 115 114 112 113 115 114
          116 117 119 118 116 117 119 118 120 121 123 122
          120 121 123 122 124 125 127 126 124 125 127 126
          128 129 131 130 128 129 131 130 132 133 135 134
          132 133 135 134 136 137 139 138 136 137 139 138
          140 141 143 142 140 141 143 142 144 145 147 146
          144 145 147 146 148 149 151 150 148 149 151 150
          152 153 155 154 152 153 155 154 156 157 159 158
          156 157 159 158 160 161 163 162 160 161 163 162
          164 165 167 166 164 165 167 166 168 169 171 170
          168 169 171 170 172 173 175 174 172 173 175 174
          176 177 179 178 176 177 179 178 180 181 183 182
          180 181 183 182 184 185 187 186 184 185 187 186
          188 189 191 190 188 189 191 190 192 193 195 194
          192 193 195 194 196 197 199 198 196 197 199 198
          200 201 203 202 200 201 203 202 204 205 207 206
          204 205 207 206 208 209 211 210 208 209 211 210
          212 213 215 214 212 213 215 214 216 217 219 218
          216 217 219 218 220 221 223 222 220 221 223 222
          224 225 227 226 224 225 227 226 228 229 231 230
          228 229 231 230 232 233 235 234 232 233 235 234
          236 237 239 238 236 237 239 238 240 241 243 242
          240 241 243 242 244 245 247 246 244 245 247 246
          248 249 251 250 248 249 251 250 252 253 255 254
          252 253 255 254 256 257 259 258 256 257 259 258
          260 261 263 262 260 261 263 262 264 265 267 266
          264 265 267 266 268 269 271 270 268 269 271 270
          272 273 275 274 272 273 275 274 276 277 279 278
          276 277 279 278 280 281 283 282 280 281 283 282
          284 285 287 286 284 285 287 286 288 289 291 290
          288 289 291 290 292 293 295 294 292 293 295 294
          296 297 299 298 296 297 299 298 300 301 303 302
          300 301 303 302 304 305 307 306 304 305 307 306
          308 309 311 310 308 309 311 310 312 313 315 314
          312 313 315 314 316 317 319 318 316 317 319 318
          320 321 323 322 320 321 323 322 324 325 327 326
          324 325 327 326 328 329 331 330 328 329 331 330
          332 333 335 334 332 333 335 334 336 337 339 338
          336 337 339 338 340 341 343 342 340 341 343 342
          344 345 347 346 344 345 347 346 348 349 351 350
          348 349 351 350 352 353 355 354 352 353 355 354
          356 357 359 358 356 357 359 358 360 361 363 362
          360 361 363 362 364 365 367 366 364 365 367 366
          368 369 371 370 368 369 371 370 372 373 375 374
          372 373 375 374 376 377 379 378 376 377 379 378
          380 381 383 382 380 381 383 382 384 385 387 386
          384 385 387 386 388 389 391 390 388 389 391 390
          392 393 395 394 392 393 395 394 396 397 399 398
          396 397 399 398 400 401 403 402
        </DataArray>
        <DataArray type="Int32" Name="offsets" NumberOfComponents="1" format="ascii">
          8 16 24 32 40 48 56 64 72 80 88 96
          104 112 120 128 136 144 152 160 168 176 184 192
          200 208 216 224 232 240 248 256 264 272 280 288
          296 304 312 320 328 336 344 352 360 368 376 384
          392 400 408 416 424 432 440 448 456 464 472 480
          488 496 504 512 520 528 536 544 552 560 568 576
          584 592 600 608 616 624 632 640 648 656 664 672
          680 688 696 704 712 720 728 736 744 752 760 768
          776 784 792 800
        </DataArray>
        <DataArray type="UInt8" Name="types" NumberOfComponents="1" format="ascii">
          12 12 12 12 12 12 12 12 12 12 12 12
          12 12 12 12 12 12 12 12 12 12 12 12
          12 12 12 12 12 12 12 12 12 12 12 12
          12 12 12 12 12 12 12 12 12 12 12 12
          12 12 12 12 12 12 12 12 12 12 12 12
          12 12 12 12 12 12 12 12 12 12 12 12
          12 12 12 12 12 12 12 12 12 12 12 12
          12 12 12 12 12 12 12 12 12 12 12 12
          12 12 12 12
        </DataArray>
      </Cells>
    </Piece>
  </UnstructuredGrid>
</VTKFile>
