<?xml version="1.0"?>
<VTKFile type="UnstructuredGrid" version="0.1" byte_order="LittleEndian">
  <UnstructuredGrid>
    <Piece NumberOfCells="100" NumberOfPoints="404">
      <CellData Scalars="pressure[0]">
        <DataArray type="Float32" Name="pressure[0]" NumberOfComponents="1" format="ascii">
          5.76756e+06 5.76807e+06 5.76858e+06 5.76909e+06 5.7696e+06 5.77011e+06 5.77062e+06 5.77113e+06 5.77164e+06 5.77215e+06 5.77266e+06 5.77317e+06
          5.77368e+06 5.7742e+06 5.77471e+06 5.77522e+06 5.77573e+06 5.77624e+06 5.77675e+06 5.77726e+06 5.77777e+06 5.77828e+06 5.77879e+06 5.7793e+06
          5.77982e+06 5.78033e+06 5.78084e+06 5.78135e+06 5.78186e+06 5.78237e+06 5.78288e+06 5.7834e+06 5.78397e+06 5.79284e+06 5.80169e+06 5.81056e+06
          5.81942e+06 5.82829e+06 5.83716e+06 5.84603e+06 5.8549e+06 5.86378e+06 5.87264e+06 5.88151e+06 5.89038e+06 5.89925e+06 5.90812e+06 5.91699e+06
          5.92586e+06 5.93481e+06 5.94428e+06 5.954e+06 5.96375e+06 5.97349e+06 5.98323e+06 5.99296e+06 6.00269e+06 6.01241e+06 6.02212e+06 6.03183e+06
          6.04153e+06 6.05123e+06 6.06092e+06 6.0706e+06 6.08028e+06 6.08995e+06 6.09962e+06 6.10928e+06 6.11893e+06 6.12858e+06 6.13822e+06 6.14785e+06
          6.15748e+06 6.16711e+06 6.17673e+06 6.18635e+06 6.19597e+06 6.20567e+06 6.21558e+06 6.22567e+06 6.23583e+06 6.24601e+06 6.25619e+06 6.26637e+06
          6.27655e+06 6.28672e+06 6.2969e+06 6.30708e+06 6.31726e+06 6.32744e+06 6.33762e+06 6.3478e+06 6.35798e+06 6.36816e+06 6.37834e+06 6.38852e+06
          6.3987e+06 6.40888e+06 6.41906e+06 6.42924e+06
        </DataArray>
        <DataArray type="Float32" Name="pressure[1]" NumberOfComponents="1" format="ascii">
          5.76756e+06 5.76807e+06 5.76858e+06 5.76909e+06 5.7696e+06 5.77011e+06 5.77062e+06 5.77113e+06 5.77164e+06 5.77215e+06 5.77266e+06 5.77317e+06
          5.77368e+06 5.7742e+06 5.77471e+06 5.77522e+06 5.77573e+06 5.77624e+06 5.77675e+06 5.77726e+06 5.77777e+06 5.77828e+06 5.77879e+06 5.7793e+06
          5.77982e+06 5.78033e+06 5.78084e+06 5.78135e+06 5.78186e+06 5.78237e+06 5.78288e+06 5.7834e+06 5.78397e+06 5.79284e+06 5.80169e+06 5.81056e+06
          5.81942e+06 5.82829e+06 5.83716e+06 5.84603e+06 5.8549e+06 5.86378e+06 5.87264e+06 5.88151e+06 5.89038e+06 5.89925e+06 5.90812e+06 5.91699e+06
          5.92586e+06 5.93481e+06 5.94428e+06 5.954e+06 5.96375e+06 5.97349e+06 5.98323e+06 5.99296e+06 6.00269e+06 6.01241e+06 6.02212e+06 6.03183e+06
          6.04153e+06 6.05123e+06 6.06092e+06 6.0706e+06 6.08028e+06 6.08995e+06 6.09962e+06 6.10928e+06 6.11893e+06 6.12858e+06 6.13822e+06 6.14785e+06
          6.15748e+06 6.16711e+06 6.17673e+06 6.18635e+06 6.19597e+06 6.20567e+06 6.21558e+06 6.22567e+06 6.23583e+06 6.24601e+06 6.25619e+06 6.26637e+06
          6.27655e+06 6.28672e+06 6.2969e+06 6.30708e+06 6.31726e+06 6.32744e+06 6.33762e+06 6.3478e+06 6.35798e+06 6.36816e+06 6.37834e+06 6.38852e+06
          6.3987e+06 6.40888e+06 6.41906e+06 6.42924e+06
        </DataArray>
        <DataArray type="Float32" Name="pressure[2]" NumberOfComponents="1" format="ascii">
          5.76756e+06 5.76807e+06 5.76858e+06 5.76909e+06 5.7696e+06 5.77011e+06 5.77062e+06 5.77113e+06 5.77164e+06 5.77215e+06 5.77266e+06 5.77317e+06
          5.77368e+06 5.7742e+06 5.77471e+06 5.77522e+06 5.77573e+06 5.77624e+06 5.77675e+06 5.77726e+06 5.77777e+06 5.77828e+06 5.77879e+06 5.7793e+06
          5.77982e+06 5.78033e+06 5.78084e+06 5.78135e+06 5.78186e+06 5.78237e+06 5.78288e+06 5.7834e+06 5.78397e+06 5.79284e+06 5.80169e+06 5.81056e+06
          5.81942e+06 5.82829e+06 5.83716e+06 5.84603e+06 5.8549e+06 5.86378e+06 5.87264e+06 5.88151e+06 5.89038e+06 5.89925e+06 5.90812e+06 5.91699e+06
          5.92586e+06 5.93481e+06 5.94428e+06 5.954e+06 5.96375e+06 5.97349e+06 5.98323e+06 5.99296e+06 6.00269e+06 6.01241e+06 6.02212e+06 6.03183e+06
          6.04153e+06 6.05123e+06 6.06092e+06 6.0706e+06 6.08028e+06 6.08995e+06 6.09962e+06 6.10928e+06 6.11893e+06 6.12858e+06 6.13822e+06 6.14785e+06
          6.15748e+06 6.16711e+06 6.17673e+06 6.18635e+06 6.19597e+06 6.20567e+06 6.21558e+06 6.22567e+06 6.23583e+06 6.24601e+06 6.25619e+06 6.26637e+06
          6.27655e+06 6.28672e+06 6.2969e+06 6.30708e+06 6.31726e+06 6.32744e+06 6.33762e+06 6.3478e+06 6.35798e+06 6.36816e+06 6.37834e+06 6.38852e+06
          6.3987e+06 6.40888e+06 6.41906e+06 6.42924e+06
        </DataArray>
        <DataArray type="Float32" Name="velocity[0]" NumberOfComponents="1" format="ascii">
          0 0 0 0 0 0 0 0 0 0 0 0
          0 0 0 0 0 0 0 0 0 0 0 0
          0 0 0 0 0 0 0 0 0 0 0 0
          0 0 0 0 0 0 0 0 0 0 0 0
          0 0 0 0 0 0 0 0 0 0 0 0
          0 0 0 0 0 0 0 0 0 0 0 0
          0 0 0 0 0 0 0 0 0 0 0 0
          0 0 0 0 0 0 0 0 0 0 0 0
          0 0 0 0
        </DataArray>
        <DataArray type="Float32" Name="velocity[1]" NumberOfComponents="1" format="ascii">
          0 0 0 0 0 0 0 0 0 0 0 0
          0 0 0 0 0 0 0 0 0 0 0 0
          0 0 0 0 0 0 0 0 0 0 0 0
          0 0 0 0 0 0 0 0 0 0 0 0
          0 0 0 0 0 0 0 0 0 0 0 0
          0 0 0 0 0 0 0 0 0 0 0 0
          0 0 0 0 0 0 0 0 0 0 0 0
          0 0 0 0 0 0 0 0 0 0 0 0
          0 0 0 0
        </DataArray>
        <DataArray type="Float32" Name="velocity[2]" NumberOfComponents="1" format="ascii">
          3.79458e-13 1.13834e-12 1.89714e-12 2.65589e-12 3.41458e-12 4.17319e-12 4.93175e-12 5.69024e-12 6.44866e-12 7.20702e-12 7.96533e-12 8.72358e-12
          9.48177e-12 1.02399e-11 1.0998e-11 1.1756e-11 1.2514e-11 1.32719e-11 1.40297e-11 1.47875e-11 1.55453e-11 1.6303e-11 1.70606e-11 1.78182e-11
          1.85758e-11 1.93332e-11 2.00907e-11 2.08481e-11 2.16054e-11 2.23627e-11 2.312e-11 2.27737e-11 2.24036e-11 2.28928e-11 2.29928e-11 2.29344e-11
          2.28904e-11 2.28577e-11 2.28433e-11 2.28489e-11 2.28681e-11 2.28917e-11 2.2912e-11 2.29258e-11 2.29344e-11 2.29405e-11 2.29445e-11 2.27568e-11
          1.54853e-11 2.84244e-12 -2.08739e-12 1.0054e-12 2.31904e-12 -1.29523e-12 -6.85377e-12 -1.32944e-11 -1.98864e-11 -2.59469e-11 -3.0899e-11 -3.4332e-11
          -3.6032e-11 -3.59824e-11 -3.4342e-11 -3.14088e-11 -2.7576e-11 -2.32855e-11 -1.89816e-11 -1.50654e-11 -1.18528e-11 -9.53798e-12 -8.16694e-12 -7.62804e-12
          -7.66491e-12 -7.91683e-12 -7.98622e-12 -7.52793e-12 -6.33115e-12 -4.40361e-12 -2.39827e-12 -9.91711e-13 -2.84776e-13 -6.47673e-14 -1.26326e-14 -1.56713e-15
          5.65458e-16 7.61024e-16 5.72125e-16 1.70174e-17 -2.22763e-16 -2.38132e-18 -2.27488e-18 -1.9848e-18 -1.92175e-18 -2.18297e-18 -2.16863e-18 -2.2894e-18
          -2.18297e-18 -2.01348e-18 -2.10539e-18 -1.07705e-18
        </DataArray>
        <DataArray type="Float32" Name="z[0]" NumberOfComponents="1" format="ascii">
          0 0 0 0 0 0 0 0 0 0 0 0
          0 0 0 0 0 0 0 0 0 0 0 0
          0 0 0 0 0 0 0 0 0 0 0 0
          0 0 0 0 0 0 0 0 0 0 1.88379e-08 1.60597e-06
          0.000115696 0.00723319 0.157187 0.41282 0.466195 0.466728 0.462126 0.457109 0.452083 0.447077 0.442093 0.437132
          0.432199 0.427302 0.422448 0.417645 0.412902 0.408223 0.403613 0.399073 0.394601 0.390195 0.38585 0.381564
          0.377345 0.373269 0.369771 0.369233 0.384207 0.467691 0.694346 0.905768 0.979603 0.996088 0.9993 0.999882
          0.999981 0.999997 1 1 1 1 1 1 1 1 1 1
          1 1 1 1
        </DataArray>
        <DataArray type="Float32" Name="z[1]" NumberOfComponents="1" format="ascii">
          0 0 0 0 0 0 0 2.88322e-18 0 0 0 0
          0 0 0 0 0 0 0 0 0 0 0 0
          0 0 2.95029e-17 0 0 0 0 0 0.38832 0.978202 0.976581 0.975663
          0.974946 0.974375 0.974103 0.974125 0.974339 0.974607 0.974815 0.974919 0.974944 0.97494 0.974934 0.974912
          0.974701 0.967456 0.820998 0.571852 0.519882 0.519399 0.523944 0.528918 0.53392 0.538911 0.543881 0.54882
          0.553718 0.558561 0.563341 0.568048 0.57268 0.577234 0.581711 0.586118 0.59046 0.594746 0.598984 0.603176
          0.607314 0.61132 0.614765 0.615317 0.600728 0.519294 0.298189 0.0919355 0.0199006 0.00381752 0.00068312 0.000114778
          1.80773e-05 2.65657e-06 3.59283e-07 4.03102e-08 0 0 0 0 0 0 0 0
          0 0 0 0
        </DataArray>
        <DataArray type="Float32" Name="z[2]" NumberOfComponents="1" format="ascii">
          68.3489 68.3549 68.361 68.3671 68.3731 68.3792 68.3852 68.3913 68.3974 68.4034 68.4095 68.4156
          68.4216 68.4277 68.4338 68.4398 68.4459 68.452 68.458 68.4641 68.4702 68.4762 68.4823 68.4884
          68.4945 68.5005 68.5066 68.5127 68.5187 68.5248 68.5309 65.5351 65.4792 53.8279 56.5408 58.0724
          59.3254 60.3286 60.8205 60.8051 60.4624 60.0274 59.6954 59.5425 59.5245 59.5555 59.5911 59.6505
          59.7683 59.5378 50.724 35.4368 32.2894 32.3176 32.6422 32.9738 33.2849 33.5731 33.8394 34.0869
          34.3195 34.542 34.7594 34.9762 35.1961 35.422 35.6552 35.8959 36.1429 36.394 36.6462 36.8965
          37.1412 37.3739 37.568 37.5827 36.673 31.6879 18.1897 5.60645 1.2132 0.232644 0.0416136 0.00698939
          0.00110092 0.000162132 2.21557e-05 2.69067e-06 0 0 0 0 0 0 0 0
          0 0 0 0
        </DataArray>
        <DataArray type="Float32" Name="sat[0]" NumberOfComponents="1" format="ascii">
          0 0 0 0 0 0 0 0 0 0 0 0
          0 0 0 0 0 0 0 0 0 0 0 0
          0 0 0 0 0 0 0 0 0 0 0 0
          0 0 0 0 0 0 0 0 0 0 1.88379e-08 1.60597e-06
          0.000115701 0.00723498 0.157257 0.412981 0.466339 0.466843 0.462204 0.457144 0.452073 0.447026 0.442005 0.437017
          0.432068 0.427164 0.422314 0.417523 0.412798 0.40814 0.403552 0.399031 0.394575 0.39018 0.38584 0.381554
          0.377332 0.373251 0.369748 0.369207 0.384181 0.467668 0.694327 0.905758 0.9796 0.996087 0.9993 0.999882
          0.999981 0.999997 1 1 1 1 1 1 1 1 1 1
          1 1 1 1
        </DataArray>
        <DataArray type="Float32" Name="sat[1]" NumberOfComponents="1" format="ascii">
          0 0 0 0 0 0 0 2.96004e-18 0 0 0 0
          0 0 0 0 0 0 0 0 0 0 0 0
          0 0 3.02903e-17 0 0 0 0 0 0.398692 1 1 1
          1 1 1 1 1 1 1 1 1 1 1 0.999998
          0.999884 0.992765 0.842743 0.587019 0.533661 0.533157 0.537796 0.542856 0.547927 0.552974 0.557995 0.562983
          0.567932 0.572836 0.577686 0.582477 0.587202 0.59186 0.596448 0.600969 0.605425 0.60982 0.61416 0.618446
          0.622668 0.626749 0.630252 0.630793 0.615819 0.532332 0.305674 0.0942423 0.0203996 0.00391313 0.000700208 0.000117646
          1.85288e-05 2.72306e-06 3.68401e-07 4.14509e-08 0 0 0 0 0 0 0 0
          0 0 0 0
        </DataArray>
        <DataArray type="Float32" Name="sat[2]" NumberOfComponents="1" format="ascii">
          1 1 1 1 1 1 1 1 1 1 1 1
          1 1 1 1 1 1 1 1 1 1 1 1
          1 1 1 1 1 1 1 1 0.601308 0 0 0
          0 0 0 0 0 0 0 0 0 0 0 0
          0 0 0 0 0 0 0 0 0 0 0 0
          0 0 0 0 0 0 0 0 0 0 0 0
          0 0 0 0 0 0 0 0 0 0 0 0
          0 0 0 0 0 0 0 0 0 0 0 0
          0 0 0 0
        </DataArray>
        <DataArray type="Float32" Name="massFrac[0]" NumberOfComponents="1" format="ascii">
          0 0 0 0 0 0 0 0 0 0 0 0
          0 0 0 0 0 0 0 0 0 0 0 0
          0 0 0 0 0 0 0 0 0 0 0 0
          0 0 0 0 0 0 0 0 0 0 2.16192e-08 1.84303e-06
          0.000132771 0.00829308 0.176347 0.446645 0.50063 0.501125 0.496453 0.491355 0.48624 0.481145 0.476073 0.471028
          0.466017 0.461045 0.456121 0.451251 0.44644 0.441691 0.437004 0.43238 0.427815 0.423306 0.418848 0.414439
          0.410091 0.405885 0.40227 0.40171 0.417129 0.501937 0.722655 0.916838 0.98217 0.996587 0.99939 0.999897
          0.999984 0.999998 1 1 1 1 1 1 1 1 1 1
          1 1 1 1
        </DataArray>
        <DataArray type="Float32" Name="massFrac[1]" NumberOfComponents="1" format="ascii">
          0 0 0 0 0 0 0 4.88165e-17 0 0 0 0
          0 0 0 0 0 0 0 0 0 0 0 0
          0 0 4.98681e-16 0 0 0 0 0 0.872889 0.954634 0.952382 0.951111
          0.950074 0.949244 0.948838 0.948851 0.949136 0.949496 0.949772 0.949899 0.949915 0.94989 0.949861 0.949811
          0.949582 0.941661 0.781933 0.525246 0.473949 0.473435 0.477838 0.48266 0.487513 0.492366 0.497211 0.502044
          0.506854 0.511631 0.516364 0.521043 0.52566 0.530211 0.534693 0.539107 0.543457 0.547748 0.551988 0.55618
          0.560316 0.564321 0.567767 0.568313 0.553681 0.47313 0.263465 0.0790016 0.0169387 0.00324247 0.00057998 9.74413e-05
          1.53466e-05 2.25527e-06 3.0501e-07 3.42209e-08 0 0 0 0 0 0 0 0
          0 0 0 0
        </DataArray>
        <DataArray type="Float32" Name="massFrac[2]" NumberOfComponents="1" format="ascii">
          1 1 1 1 1 1 1 1 1 1 1 1
          1 1 1 1 1 1 1 1 1 1 1 1
          1 1 1 1 1 1 1 1 0.127111 0.0453655 0.0476184 0.0488891
          0.0499261 0.0507557 0.051162 0.0511486 0.0508643 0.0505037 0.0502282 0.050101 0.0500854 0.0501103 0.0501391 0.0501875
          0.0502854 0.0500457 0.0417206 0.0281089 0.0254212 0.0254395 0.025709 0.0259855 0.0262463 0.0264894 0.0267159 0.0269283
          0.0271297 0.027324 0.0275149 0.0277058 0.0278996 0.0280983 0.0283029 0.0285132 0.0287282 0.028946 0.0291645 0.0293809
          0.0295927 0.0297945 0.0299633 0.0299769 0.0291903 0.0249328 0.0138793 0.00416055 0.000891777 0.000170646 3.05113e-05 5.12428e-06
          8.07128e-07 1.18865e-07 1.62432e-08 1.97264e-09 0 0 0 0 0 0 0 0
          0 0 0 0
        </DataArray>
        <DataArray type="Float32" Name="total fl. vol." NumberOfComponents="1" format="ascii">
          1 1 1 1 1 1 1 1 1 1 1 1
          1 1 1 1 1 1 1 1 1 1 1 1
          1 1 1 1 1 1 1 0.9562 0.99999 0.999992 1 1
          1 1 1 1 0.999999 0.999999 1 1 1 1 1 1
          0.999958 0.999753 0.999557 0.99961 0.999691 0.999754 0.999831 0.999923 1.00002 1.00012 1.0002 1.00026
          1.0003 1.00032 1.00032 1.00029 1.00025 1.0002 1.00015 1.00011 1.00007 1.00004 1.00003 1.00002
          1.00003 1.00005 1.00006 1.00007 1.00007 1.00005 1.00003 1.00001 1 1 1 1
          1 1 1 1 1 1 1 1 1 1 1 1
          1 1 1 1
        </DataArray>
      </CellData>
      <Points>
        <DataArray type="Float32" Name="Coordinates" NumberOfComponents="3" format="ascii">
          0 0 0 1 0 0 0 1 0 1 1 0
          0 0 1 1 0 1 0 1 1 1 1 1
          0 0 2 1 0 2 0 1 2 1 1 2
          0 0 3 1 0 3 0 1 3 1 1 3
          0 0 4 1 0 4 0 1 4 1 1 4
          0 0 5 1 0 5 0 1 5 1 1 5
          0 0 6 1 0 6 0 1 6 1 1 6
          0 0 7 1 0 7 0 1 7 1 1 7
          0 0 8 1 0 8 0 1 8 1 1 8
          0 0 9 1 0 9 0 1 9 1 1 9
          0 0 10 1 0 10 0 1 10 1 1 10
          0 0 11 1 0 11 0 1 11 1 1 11
          0 0 12 1 0 12 0 1 12 1 1 12
          0 0 13 1 0 13 0 1 13 1 1 13
          0 0 14 1 0 14 0 1 14 1 1 14
          0 0 15 1 0 15 0 1 15 1 1 15
          0 0 16 1 0 16 0 1 16 1 1 16
          0 0 17 1 0 17 0 1 17 1 1 17
          0 0 18 1 0 18 0 1 18 1 1 18
          0 0 19 1 0 19 0 1 19 1 1 19
          0 0 20 1 0 20 0 1 20 1 1 20
          0 0 21 1 0 21 0 1 21 1 1 21
          0 0 22 1 0 22 0 1 22 1 1 22
          0 0 23 1 0 23 0 1 23 1 1 23
          0 0 24 1 0 24 0 1 24 1 1 24
          0 0 25 1 0 25 0 1 25 1 1 25
          0 0 26 1 0 26 0 1 26 1 1 26
          0 0 27 1 0 27 0 1 27 1 1 27
          0 0 28 1 0 28 0 1 28 1 1 28
          0 0 29 1 0 29 0 1 29 1 1 29
          0 0 30 1 0 30 0 1 30 1 1 30
          0 0 31 1 0 31 0 1 31 1 1 31
          0 0 32 1 0 32 0 1 32 1 1 32
          0 0 33 1 0 33 0 1 33 1 1 33
          0 0 34 1 0 34 0 1 34 1 1 34
          0 0 35 1 0 35 0 1 35 1 1 35
          0 0 36 1 0 36 0 1 36 1 1 36
          0 0 37 1 0 37 0 1 37 1 1 37
          0 0 38 1 0 38 0 1 38 1 1 38
          0 0 39 1 0 39 0 1 39 1 1 39
          0 0 40 1 0 40 0 1 40 1 1 40
          0 0 41 1 0 41 0 1 41 1 1 41
          0 0 42 1 0 42 0 1 42 1 1 42
          0 0 43 1 0 43 0 1 43 1 1 43
          0 0 44 1 0 44 0 1 44 1 1 44
          0 0 45 1 0 45 0 1 45 1 1 45
          0 0 46 1 0 46 0 1 46 1 1 46
          0 0 47 1 0 47 0 1 47 1 1 47
          0 0 48 1 0 48 0 1 48 1 1 48
          0 0 49 1 0 49 0 1 49 1 1 49
          0 0 50 1 0 50 0 1 50 1 1 50
          0 0 51 1 0 51 0 1 51 1 1 51
          0 0 52 1 0 52 0 1 52 1 1 52
          0 0 53 1 0 53 0 1 53 1 1 53
          0 0 54 1 0 54 0 1 54 1 1 54
          0 0 55 1 0 55 0 1 55 1 1 55
          0 0 56 1 0 56 0 1 56 1 1 56
          0 0 57 1 0 57 0 1 57 1 1 57
          0 0 58 1 0 58 0 1 58 1 1 58
          0 0 59 1 0 59 0 1 59 1 1 59
          0 0 60 1 0 60 0 1 60 1 1 60
          0 0 61 1 0 61 0 1 61 1 1 61
          0 0 62 1 0 62 0 1 62 1 1 62
          0 0 63 1 0 63 0 1 63 1 1 63
          0 0 64 1 0 64 0 1 64 1 1 64
          0 0 65 1 0 65 0 1 65 1 1 65
          0 0 66 1 0 66 0 1 66 1 1 66
          0 0 67 1 0 67 0 1 67 1 1 67
          0 0 68 1 0 68 0 1 68 1 1 68
          0 0 69 1 0 69 0 1 69 1 1 69
          0 0 70 1 0 70 0 1 70 1 1 70
          0 0 71 1 0 71 0 1 71 1 1 71
          0 0 72 1 0 72 0 1 72 1 1 72
          0 0 73 1 0 73 0 1 73 1 1 73
          0 0 74 1 0 74 0 1 74 1 1 74
          0 0 75 1 0 75 0 1 75 1 1 75
          0 0 76 1 0 76 0 1 76 1 1 76
          0 0 77 1 0 77 0 1 77 1 1 77
          0 0 78 1 0 78 0 1 78 1 1 78
          0 0 79 1 0 79 0 1 79 1 1 79
          0 0 80 1 0 80 0 1 80 1 1 80
          0 0 81 1 0 81 0 1 81 1 1 81
          0 0 82 1 0 82 0 1 82 1 1 82
          0 0 83 1 0 83 0 1 83 1 1 83
          0 0 84 1 0 84 0 1 84 1 1 84
          0 0 85 1 0 85 0 1 85 1 1 85
          0 0 86 1 0 86 0 1 86 1 1 86
          0 0 87 1 0 87 0 1 87 1 1 87
          0 0 88 1 0 88 0 1 88 1 1 88
          0 0 89 1 0 89 0 1 89 1 1 89
          0 0 90 1 0 90 0 1 90 1 1 90
          0 0 91 1 0 91 0 1 91 1 1 91
          0 0 92 1 0 92 0 1 92 1 1 92
          0 0 93 1 0 93 0 1 93 1 1 93
          0 0 94 1 0 94 0 1 94 1 1 94
          0 0 95 1 0 95 0 1 95 1 1 95
          0 0 96 1 0 96 0 1 96 1 1 96
          0 0 97 1 0 97 0 1 97 1 1 97
          0 0 98 1 0 98 0 1 98 1 1 98
          0 0 99 1 0 99 0 1 99 1 1 99
          0 0 100 1 0 100 0 1 100 1 1 100
        </DataArray>
      </Points>
      <Cells>
        <DataArray type="Int32" Name="connectivity" NumberOfComponents="1" format="ascii">
          0 1 3 2 4 5 7 6 4 5 7 6
          8 9 11 10 8 9 11 10 12 13 15 14
          12 13 15 14 16 17 19 18 16 17 19 18
          20 21 23 22 20 21 23 22 24 25 27 26
          24 25 27 26 28 29 31 30 28 29 31 30
          32 33 35 34 32 33 35 34 36 37 39 38
          36 37 39 38 40 41 43 42 40 41 43 42
          44 45 47 46 44 45 47 46 48 49 51 50
          48 49 51 50 52 53 55 54 52 53 55 54
          56 57 59 58 56 57 59 58 60 61 63 62
          60 61 63 62 64 65 67 66 64 65 67 66
          68 69 71 70 68 69 71 70 72 73 75 74
          72 73 75 74 76 77 79 78 76 77 79 78
          80 81 83 82 80 81 83 82 84 85 87 86
          84 85 87 86 88 89 91 90 88 89 91 90
          92 93 95 94 92 93 95 94 96 97 99 98
          96 97 99 98 100 101 103 102 100 101 103 102
          104 105 107 106 104 105 107 106 108 109 111 110
          108 109 111 110 112 113 115 114 112 113 115 114
          116 117 119 118 116 117 119 118 120 121 123 122
          120 121 123 122 124 125 127 126 124 125 127 126
          128 129 131 130 128 129 131 130 132 133 135 134
          132 133 135 134 136 137 139 138 136 137 139 138
          140 141 143 142 140 141 143 142 144 145 147 146
          144 145 147 146 148 149 151 150 148 149 151 150
          152 153 155 154 152 153 155 154 156 157 159 158
          156 157 159 158 160 161 163 162 160 161 163 162
          164 165 167 166 164 165 167 166 168 169 171 170
          168 169 171 170 172 173 175 174 172 173 175 174
          176 177 179 178 176 177 179 178 180 181 183 182
          180 181 183 182 184 185 187 186 184 185 187 186
          188 189 191 190 188 189 191 190 192 193 195 194
          192 193 195 194 196 197 199 198 196 197 199 198
          200 201 203 202 200 201 203 202 204 205 207 206
          204 205 207 206 208 209 211 210 208 209 211 210
          212 213 215 214 212 213 215 214 216 217 219 218
          216 217 219 218 220 221 223 222 220 221 223 222
          224 225 227 226 224 225 227 226 228 229 231 230
          228 229 231 230 232 233 235 234 232 233 235 234
          236 237 239 238 236 237 239 238 240 241 243 242
          240 241 243 242 244 245 247 246 244 245 247 246
          248 249 251 250 248 249 251 250 252 253 255 254
          252 253 255 254 256 257 259 258 256 257 259 258
          260 261 263 262 260 261 263 262 264 265 267 266
          264 265 267 266 268 269 271 270 268 269 271 270
          272 273 275 274 272 273 275 274 276 277 279 278
          276 277 279 278 280 281 283 282 280 281 283 282
          284 285 287 286 284 285 287 286 288 289 291 290
          288 289 291 290 292 293 295 294 292 293 295 294
          296 297 299 298 296 297 299 298 300 301 303 302
          300 301 303 302 304 305 307 306 304 305 307 306
          308 309 311 310 308 309 311 310 312 313 315 314
          312 313 315 314 316 317 319 318 316 317 319 318
          320 321 323 322 320 321 323 322 324 325 327 326
          324 325 327 326 328 329 331 330 328 329 331 330
          332 333 335 334 332 333 335 334 336 337 339 338
          336 337 339 338 340 341 343 342 340 341 343 342
          344 345 347 346 344 345 347 346 348 349 351 350
          348 349 351 350 352 353 355 354 352 353 355 354
          356 357 359 358 356 357 359 358 360 361 363 362
          360 361 363 362 364 365 367 366 364 365 367 366
          368 369 371 370 368 369 371 370 372 373 375 374
          372 373 375 374 376 377 379 378 376 377 379 378
          380 381 383 382 380 381 383 382 384 385 387 386
          384 385 387 386 388 389 391 390 388 389 391 390
          392 393 395 394 392 393 395 394 396 397 399 398
          396 397 399 398 400 401 403 402
        </DataArray>
        <DataArray type="Int32" Name="offsets" NumberOfComponents="1" format="ascii">
          8 16 24 32 40 48 56 64 72 80 88 96
          104 112 120 128 136 144 152 160 168 176 184 192
          200 208 216 224 232 240 248 256 264 272 280 288
          296 304 312 320 328 336 344 352 360 368 376 384
          392 400 408 416 424 432 440 448 456 464 472 480
          488 496 504 512 520 528 536 544 552 560 568 576
          584 592 600 608 616 624 632 640 648 656 664 672
          680 688 696 704 712 720 728 736 744 752 760 768
          776 784 792 800
        </DataArray>
        <DataArray type="UInt8" Name="types" NumberOfComponents="1" format="ascii">
          12 12 12 12 12 12 12 12 12 12 12 12
          12 12 12 12 12 12 12 12 12 12 12 12
          12 12 12 12 12 12 12 12 12 12 12 12
          12 12 12 12 12 12 12 12 12 12 12 12
          12 12 12 12 12 12 12 12 12 12 12 12
          12 12 12 12 12 12 12 12 12 12 12 12
          12 12 12 12 12 12 12 12 12 12 12 12
          12 12 12 12 12 12 12 12 12 12 12 12
          12 12 12 12
        </DataArray>
      </Cells>
    </Piece>
  </UnstructuredGrid>
</VTKFile>
