<?xml version="1.0"?>
<VTKFile type="UnstructuredGrid" version="0.1" byte_order="LittleEndian">
  <UnstructuredGrid>
    <Piece NumberOfCells="360" NumberOfPoints="800">
      <CellData Scalars="pressure[0]">
        <DataArray type="Float32" Name="pressure[0]" NumberOfComponents="1" format="ascii">
          2.11506e+07 2.11653e+07 2.21358e+07 2.30067e+07 2.3356e+07 2.37677e+07 2.39026e+07 2.39516e+07 2.40111e+07 2.4074e+07 2.42448e+07 2.45343e+07
          2.47579e+07 2.5366e+07 2.60829e+07 2.1195e+07 2.12098e+07 2.22892e+07 2.32143e+07 2.35575e+07 2.39649e+07 2.40614e+07 2.40988e+07 2.41587e+07
          2.42292e+07 2.44731e+07 2.47728e+07 2.49472e+07 2.55639e+07 2.62481e+07 2.12399e+07 2.12544e+07 2.23588e+07 2.3384e+07 2.36964e+07 2.40741e+07
          2.41884e+07 2.42428e+07 2.43196e+07 2.44176e+07 2.47544e+07 2.51044e+07 2.52658e+07 2.58193e+07 2.64554e+07 2.12854e+07 2.13049e+07 2.21869e+07
          2.35311e+07 2.38461e+07 2.42333e+07 2.43505e+07 2.44335e+07 2.455e+07 2.46991e+07 2.5129e+07 2.5516e+07 2.56675e+07 2.61156e+07 2.67104e+07
          2.1364e+07 2.13928e+07 1.97725e+07 2.3657e+07 2.42275e+07 2.48132e+07 2.48953e+07 2.4937e+07 2.50189e+07 2.52674e+07 2.55986e+07 2.59466e+07
          2.60684e+07 2.64421e+07 2.69593e+07 2.15504e+07 2.15939e+07 2.18182e+07 2.43779e+07 2.48801e+07 2.53366e+07 2.53987e+07 2.54626e+07 2.57165e+07
          2.65734e+07 2.64602e+07 2.63333e+07 2.64361e+07 2.67708e+07 2.72354e+07 2.17825e+07 2.18316e+07 2.25278e+07 2.50858e+07 2.55074e+07 2.58592e+07
          2.59166e+07 2.59802e+07 2.60513e+07 2.63467e+07 2.65411e+07 2.65964e+07 2.67114e+07 2.71164e+07 2.76118e+07 2.2106e+07 2.21585e+07 2.30486e+07
          2.55408e+07 2.60211e+07 2.6297e+07 2.63491e+07 2.63955e+07 2.64626e+07 2.66303e+07 2.67632e+07 2.68228e+07 2.70018e+07 2.74675e+07 2.81238e+07
          2.25638e+07 2.26237e+07 2.35036e+07 2.57905e+07 2.65015e+07 2.67264e+07 2.6813e+07 2.68948e+07 2.68899e+07 2.69498e+07 2.70065e+07 2.70397e+07
          2.72364e+07 2.78573e+07 2.86322e+07 2.31183e+07 2.32189e+07 2.39891e+07 2.48143e+07 2.68628e+07 2.70992e+07 2.7299e+07 2.74837e+07 2.73368e+07
          2.72893e+07 2.72928e+07 2.73248e+07 2.75512e+07 2.82566e+07 2.89411e+07 2.39263e+07 2.41735e+07 2.47272e+07 2.53025e+07 2.72043e+07 2.73848e+07
          2.7707e+07 2.79878e+07 2.77884e+07 2.76636e+07 2.75878e+07 2.76293e+07 2.78391e+07 2.86207e+07 2.95002e+07 2.54398e+07 2.55809e+07 2.57081e+07
          2.60934e+07 2.75592e+07 2.76684e+07 2.81287e+07 2.85104e+07 2.85851e+07 2.83793e+07 2.83573e+07 2.84118e+07 2.88418e+07 2.9329e+07 3.01668e+07
          2.651e+07 2.65408e+07 2.6424e+07 2.67714e+07 2.80275e+07 2.81373e+07 2.86319e+07 2.90688e+07 2.91647e+07 2.9192e+07 2.92017e+07 2.93979e+07
          2.98486e+07 3.05793e+07 3.07592e+07 2.73563e+07 2.73874e+07 2.71489e+07 2.80699e+07 2.88083e+07 2.88882e+07 2.92963e+07 2.96213e+07 2.96886e+07
          2.97734e+07 2.98571e+07 3.02857e+07 3.08506e+07 3.12946e+07 3.11438e+07 2.80439e+07 2.80443e+07 2.80628e+07 2.91206e+07 2.95266e+07 2.95847e+07
          2.98585e+07 3.00553e+07 3.0105e+07 3.01817e+07 3.03288e+07 3.09958e+07 3.15166e+07 3.16845e+07 3.15962e+07 2.86624e+07 2.86891e+07 2.87862e+07
          2.97545e+07 2.99679e+07 3.00214e+07 3.02159e+07 3.03453e+07 3.0393e+07 3.04628e+07 3.07277e+07 3.13684e+07 3.18469e+07 3.21274e+07 3.2025e+07
          2.93015e+07 2.93532e+07 2.97293e+07 3.02224e+07 3.03334e+07 3.03728e+07 3.04773e+07 3.0569e+07 3.06157e+07 3.06765e+07 3.10224e+07 3.17822e+07
          3.22959e+07 3.2569e+07 3.24203e+07 2.9821e+07 2.98802e+07 3.02224e+07 3.04828e+07 3.05978e+07 3.06422e+07 3.07246e+07 3.07937e+07 3.08422e+07
          3.08983e+07 3.13212e+07 3.21227e+07 3.26471e+07 3.28734e+07 3.28146e+07 3.01184e+07 3.01834e+07 3.03873e+07 3.06792e+07 3.08313e+07 3.08787e+07
          3.09516e+07 3.10129e+07 3.1058e+07 3.11122e+07 3.1576e+07 3.24602e+07 3.29967e+07 3.31699e+07 3.33501e+07 3.03595e+07 3.04175e+07 3.06005e+07
          3.08899e+07 3.10395e+07 3.10874e+07 3.11583e+07 3.12166e+07 3.1262e+07 3.13216e+07 3.17809e+07 3.27538e+07 3.33419e+07 3.34812e+07 3.3861e+07
          3.05647e+07 3.06297e+07 3.07762e+07 3.10439e+07 3.12282e+07 3.12803e+07 3.13562e+07 3.14176e+07 3.14768e+07 3.15507e+07 3.21969e+07 3.32362e+07
          3.36642e+07 3.38104e+07 3.42662e+07 3.07619e+07 3.08291e+07 3.09603e+07 3.12215e+07 3.14089e+07 3.14655e+07 3.15528e+07 3.16227e+07 3.16981e+07
          3.17826e+07 3.26518e+07 3.37305e+07 3.39972e+07 3.41719e+07 3.46617e+07 3.09432e+07 3.10051e+07 3.11615e+07 3.14358e+07 3.15897e+07 3.16539e+07
          3.17559e+07 3.18366e+07 3.19325e+07 3.20363e+07 3.30414e+07 3.4143e+07 3.43725e+07 3.45663e+07 3.49537e+07 3.11104e+07 3.11696e+07 3.13075e+07
          3.1582e+07 3.17772e+07 3.1843e+07 3.19573e+07 3.20508e+07 3.21668e+07 3.23045e+07 3.3469e+07 3.45054e+07 3.47591e+07 3.49358e+07 3.52151e+07
        </DataArray>
        <DataArray type="Float32" Name="pressure[1]" NumberOfComponents="1" format="ascii">
          2.11506e+07 2.11653e+07 2.21358e+07 2.30067e+07 2.3356e+07 2.37677e+07 2.39026e+07 2.39516e+07 2.40111e+07 2.4074e+07 2.42448e+07 2.45343e+07
          2.47579e+07 2.5366e+07 2.60829e+07 2.1195e+07 2.12098e+07 2.22892e+07 2.32143e+07 2.35575e+07 2.39649e+07 2.40614e+07 2.40988e+07 2.41587e+07
          2.42292e+07 2.44731e+07 2.47728e+07 2.49472e+07 2.55639e+07 2.62481e+07 2.12399e+07 2.12544e+07 2.23588e+07 2.3384e+07 2.36964e+07 2.40741e+07
          2.41884e+07 2.42428e+07 2.43196e+07 2.44176e+07 2.47544e+07 2.51044e+07 2.52658e+07 2.58193e+07 2.64554e+07 2.12854e+07 2.13049e+07 2.21869e+07
          2.35311e+07 2.38461e+07 2.42333e+07 2.43505e+07 2.44335e+07 2.455e+07 2.46991e+07 2.5129e+07 2.5516e+07 2.56675e+07 2.61156e+07 2.67104e+07
          2.1364e+07 2.13928e+07 1.97725e+07 2.3657e+07 2.42275e+07 2.48132e+07 2.48953e+07 2.4937e+07 2.50189e+07 2.52674e+07 2.55986e+07 2.59466e+07
          2.60684e+07 2.64421e+07 2.69593e+07 2.15504e+07 2.15939e+07 2.18182e+07 2.43779e+07 2.48801e+07 2.53366e+07 2.53987e+07 2.54626e+07 2.57165e+07
          2.65734e+07 2.64602e+07 2.63333e+07 2.64361e+07 2.67708e+07 2.72354e+07 2.17825e+07 2.18316e+07 2.25278e+07 2.50858e+07 2.55074e+07 2.58592e+07
          2.59166e+07 2.59802e+07 2.60513e+07 2.63467e+07 2.65411e+07 2.65964e+07 2.67114e+07 2.71164e+07 2.76118e+07 2.2106e+07 2.21585e+07 2.30486e+07
          2.55408e+07 2.60211e+07 2.6297e+07 2.63491e+07 2.63955e+07 2.64626e+07 2.66303e+07 2.67632e+07 2.68228e+07 2.70018e+07 2.74675e+07 2.81238e+07
          2.25638e+07 2.26237e+07 2.35036e+07 2.57905e+07 2.65015e+07 2.67264e+07 2.6813e+07 2.68948e+07 2.68899e+07 2.69498e+07 2.70065e+07 2.70397e+07
          2.72364e+07 2.78573e+07 2.86322e+07 2.31183e+07 2.32189e+07 2.39891e+07 2.48143e+07 2.68628e+07 2.70992e+07 2.7299e+07 2.74837e+07 2.73368e+07
          2.72893e+07 2.72928e+07 2.73248e+07 2.75512e+07 2.82566e+07 2.89411e+07 2.39263e+07 2.41735e+07 2.47272e+07 2.53025e+07 2.72043e+07 2.73848e+07
          2.7707e+07 2.79878e+07 2.77884e+07 2.76636e+07 2.75878e+07 2.76293e+07 2.78391e+07 2.86207e+07 2.95002e+07 2.54398e+07 2.55809e+07 2.57081e+07
          2.60934e+07 2.75592e+07 2.76684e+07 2.81287e+07 2.85104e+07 2.85851e+07 2.83793e+07 2.83573e+07 2.84118e+07 2.88418e+07 2.9329e+07 3.01668e+07
          2.651e+07 2.65408e+07 2.6424e+07 2.67714e+07 2.80275e+07 2.81373e+07 2.86319e+07 2.90688e+07 2.91647e+07 2.9192e+07 2.92017e+07 2.93979e+07
          2.98486e+07 3.05793e+07 3.07592e+07 2.73563e+07 2.73874e+07 2.71489e+07 2.80699e+07 2.88083e+07 2.88882e+07 2.92963e+07 2.96213e+07 2.96886e+07
          2.97734e+07 2.98571e+07 3.02857e+07 3.08506e+07 3.12946e+07 3.11438e+07 2.80439e+07 2.80443e+07 2.80628e+07 2.91206e+07 2.95266e+07 2.95847e+07
          2.98585e+07 3.00553e+07 3.0105e+07 3.01817e+07 3.03288e+07 3.09958e+07 3.15166e+07 3.16845e+07 3.15962e+07 2.86624e+07 2.86891e+07 2.87862e+07
          2.97545e+07 2.99679e+07 3.00214e+07 3.02159e+07 3.03453e+07 3.0393e+07 3.04628e+07 3.07277e+07 3.13684e+07 3.18469e+07 3.21274e+07 3.2025e+07
          2.93015e+07 2.93532e+07 2.97293e+07 3.02224e+07 3.03334e+07 3.03728e+07 3.04773e+07 3.0569e+07 3.06157e+07 3.06765e+07 3.10224e+07 3.17822e+07
          3.22959e+07 3.2569e+07 3.24203e+07 2.9821e+07 2.98802e+07 3.02224e+07 3.04828e+07 3.05978e+07 3.06422e+07 3.07246e+07 3.07937e+07 3.08422e+07
          3.08983e+07 3.13212e+07 3.21227e+07 3.26471e+07 3.28734e+07 3.28146e+07 3.01184e+07 3.01834e+07 3.03873e+07 3.06792e+07 3.08313e+07 3.08787e+07
          3.09516e+07 3.10129e+07 3.1058e+07 3.11122e+07 3.1576e+07 3.24602e+07 3.29967e+07 3.31699e+07 3.33501e+07 3.03595e+07 3.04175e+07 3.06005e+07
          3.08899e+07 3.10395e+07 3.10874e+07 3.11583e+07 3.12166e+07 3.1262e+07 3.13216e+07 3.17809e+07 3.27538e+07 3.33419e+07 3.34812e+07 3.3861e+07
          3.05647e+07 3.06297e+07 3.07762e+07 3.10439e+07 3.12282e+07 3.12803e+07 3.13562e+07 3.14176e+07 3.14768e+07 3.15507e+07 3.21969e+07 3.32362e+07
          3.36642e+07 3.38104e+07 3.42662e+07 3.07619e+07 3.08291e+07 3.09603e+07 3.12215e+07 3.14089e+07 3.14655e+07 3.15528e+07 3.16227e+07 3.16981e+07
          3.17826e+07 3.26518e+07 3.37305e+07 3.39972e+07 3.41719e+07 3.46617e+07 3.09432e+07 3.10051e+07 3.11615e+07 3.14358e+07 3.15897e+07 3.16539e+07
          3.17559e+07 3.18366e+07 3.19325e+07 3.20363e+07 3.30414e+07 3.4143e+07 3.43725e+07 3.45663e+07 3.49537e+07 3.11104e+07 3.11696e+07 3.13075e+07
          3.1582e+07 3.17772e+07 3.1843e+07 3.19573e+07 3.20508e+07 3.21668e+07 3.23045e+07 3.3469e+07 3.45054e+07 3.47591e+07 3.49358e+07 3.52151e+07
        </DataArray>
        <DataArray type="Float32" Name="pressure[2]" NumberOfComponents="1" format="ascii">
          2.11506e+07 2.11653e+07 2.21358e+07 2.30067e+07 2.3356e+07 2.37677e+07 2.39026e+07 2.39516e+07 2.40111e+07 2.4074e+07 2.42448e+07 2.45343e+07
          2.47579e+07 2.5366e+07 2.60829e+07 2.1195e+07 2.12098e+07 2.22892e+07 2.32143e+07 2.35575e+07 2.39649e+07 2.40614e+07 2.40988e+07 2.41587e+07
          2.42292e+07 2.44731e+07 2.47728e+07 2.49472e+07 2.55639e+07 2.62481e+07 2.12399e+07 2.12544e+07 2.23588e+07 2.3384e+07 2.36964e+07 2.40741e+07
          2.41884e+07 2.42428e+07 2.43196e+07 2.44176e+07 2.47544e+07 2.51044e+07 2.52658e+07 2.58193e+07 2.64554e+07 2.12854e+07 2.13049e+07 2.21869e+07
          2.35311e+07 2.38461e+07 2.42333e+07 2.43505e+07 2.44335e+07 2.455e+07 2.46991e+07 2.5129e+07 2.5516e+07 2.56675e+07 2.61156e+07 2.67104e+07
          2.1364e+07 2.13928e+07 1.97725e+07 2.3657e+07 2.42275e+07 2.48132e+07 2.48953e+07 2.4937e+07 2.50189e+07 2.52674e+07 2.55986e+07 2.59466e+07
          2.60684e+07 2.64421e+07 2.69593e+07 2.15504e+07 2.15939e+07 2.18182e+07 2.43779e+07 2.48801e+07 2.53366e+07 2.53987e+07 2.54626e+07 2.57165e+07
          2.65734e+07 2.64602e+07 2.63333e+07 2.64361e+07 2.67708e+07 2.72354e+07 2.17825e+07 2.18316e+07 2.25278e+07 2.50858e+07 2.55074e+07 2.58592e+07
          2.59166e+07 2.59802e+07 2.60513e+07 2.63467e+07 2.65411e+07 2.65964e+07 2.67114e+07 2.71164e+07 2.76118e+07 2.2106e+07 2.21585e+07 2.30486e+07
          2.55408e+07 2.60211e+07 2.6297e+07 2.63491e+07 2.63955e+07 2.64626e+07 2.66303e+07 2.67632e+07 2.68228e+07 2.70018e+07 2.74675e+07 2.81238e+07
          2.25638e+07 2.26237e+07 2.35036e+07 2.57905e+07 2.65015e+07 2.67264e+07 2.6813e+07 2.68948e+07 2.68899e+07 2.69498e+07 2.70065e+07 2.70397e+07
          2.72364e+07 2.78573e+07 2.86322e+07 2.31183e+07 2.32189e+07 2.39891e+07 2.48143e+07 2.68628e+07 2.70992e+07 2.7299e+07 2.74837e+07 2.73368e+07
          2.72893e+07 2.72928e+07 2.73248e+07 2.75512e+07 2.82566e+07 2.89411e+07 2.39263e+07 2.41735e+07 2.47272e+07 2.53025e+07 2.72043e+07 2.73848e+07
          2.7707e+07 2.79878e+07 2.77884e+07 2.76636e+07 2.75878e+07 2.76293e+07 2.78391e+07 2.86207e+07 2.95002e+07 2.54398e+07 2.55809e+07 2.57081e+07
          2.60934e+07 2.75592e+07 2.76684e+07 2.81287e+07 2.85104e+07 2.85851e+07 2.83793e+07 2.83573e+07 2.84118e+07 2.88418e+07 2.9329e+07 3.01668e+07
          2.651e+07 2.65408e+07 2.6424e+07 2.67714e+07 2.80275e+07 2.81373e+07 2.86319e+07 2.90688e+07 2.91647e+07 2.9192e+07 2.92017e+07 2.93979e+07
          2.98486e+07 3.05793e+07 3.07592e+07 2.73563e+07 2.73874e+07 2.71489e+07 2.80699e+07 2.88083e+07 2.88882e+07 2.92963e+07 2.96213e+07 2.96886e+07
          2.97734e+07 2.98571e+07 3.02857e+07 3.08506e+07 3.12946e+07 3.11438e+07 2.80439e+07 2.80443e+07 2.80628e+07 2.91206e+07 2.95266e+07 2.95847e+07
          2.98585e+07 3.00553e+07 3.0105e+07 3.01817e+07 3.03288e+07 3.09958e+07 3.15166e+07 3.16845e+07 3.15962e+07 2.86624e+07 2.86891e+07 2.87862e+07
          2.97545e+07 2.99679e+07 3.00214e+07 3.02159e+07 3.03453e+07 3.0393e+07 3.04628e+07 3.07277e+07 3.13684e+07 3.18469e+07 3.21274e+07 3.2025e+07
          2.93015e+07 2.93532e+07 2.97293e+07 3.02224e+07 3.03334e+07 3.03728e+07 3.04773e+07 3.0569e+07 3.06157e+07 3.06765e+07 3.10224e+07 3.17822e+07
          3.22959e+07 3.2569e+07 3.24203e+07 2.9821e+07 2.98802e+07 3.02224e+07 3.04828e+07 3.05978e+07 3.06422e+07 3.07246e+07 3.07937e+07 3.08422e+07
          3.08983e+07 3.13212e+07 3.21227e+07 3.26471e+07 3.28734e+07 3.28146e+07 3.01184e+07 3.01834e+07 3.03873e+07 3.06792e+07 3.08313e+07 3.08787e+07
          3.09516e+07 3.10129e+07 3.1058e+07 3.11122e+07 3.1576e+07 3.24602e+07 3.29967e+07 3.31699e+07 3.33501e+07 3.03595e+07 3.04175e+07 3.06005e+07
          3.08899e+07 3.10395e+07 3.10874e+07 3.11583e+07 3.12166e+07 3.1262e+07 3.13216e+07 3.17809e+07 3.27538e+07 3.33419e+07 3.34812e+07 3.3861e+07
          3.05647e+07 3.06297e+07 3.07762e+07 3.10439e+07 3.12282e+07 3.12803e+07 3.13562e+07 3.14176e+07 3.14768e+07 3.15507e+07 3.21969e+07 3.32362e+07
          3.36642e+07 3.38104e+07 3.42662e+07 3.07619e+07 3.08291e+07 3.09603e+07 3.12215e+07 3.14089e+07 3.14655e+07 3.15528e+07 3.16227e+07 3.16981e+07
          3.17826e+07 3.26518e+07 3.37305e+07 3.39972e+07 3.41719e+07 3.46617e+07 3.09432e+07 3.10051e+07 3.11615e+07 3.14358e+07 3.15897e+07 3.16539e+07
          3.17559e+07 3.18366e+07 3.19325e+07 3.20363e+07 3.30414e+07 3.4143e+07 3.43725e+07 3.45663e+07 3.49537e+07 3.11104e+07 3.11696e+07 3.13075e+07
          3.1582e+07 3.17772e+07 3.1843e+07 3.19573e+07 3.20508e+07 3.21668e+07 3.23045e+07 3.3469e+07 3.45054e+07 3.47591e+07 3.49358e+07 3.52151e+07
        </DataArray>
        <DataArray type="Float32" Name="velocity[0]" NumberOfComponents="1" format="ascii">
          -1.61628e-09 6.14428e-08 -1.43819e-10 -2.18598e-08 -7.34027e-10 -2.48745e-09 -3.50992e-09 -9.73088e-10 -1.97896e-09 -2.78836e-09 -2.27167e-09 -3.38186e-09
          -2.52527e-09 -6.23517e-10 -2.51651e-09 -9.24276e-09 1.8156e-07 3.03434e-10 -7.47821e-08 -7.02814e-10 -6.5948e-10 -4.41643e-10 -1.32665e-09 -6.46903e-09
          -8.48552e-09 -4.8998e-09 -1.39178e-08 -8.86791e-09 -1.94831e-09 -6.6671e-09 -3.15958e-08 2.80056e-07 1.68725e-09 -8.30829e-08 -1.57166e-10 4.73138e-10
          -1.21892e-10 -3.94671e-09 -1.33957e-08 -1.49345e-08 -6.23292e-09 -3.35697e-08 -1.17041e-08 -4.00434e-09 -9.91335e-09 -3.00936e-08 3.09286e-07 1.00868e-08
          -1.82003e-08 -2.11656e-09 -1.50413e-08 -2.94287e-08 -2.63621e-08 -2.34298e-08 -2.48799e-08 -8.23524e-09 -6.15297e-08 -7.98254e-09 -5.57486e-09 -1.33218e-08
          -6.92336e-08 5.69121e-08 3.52861e-09 -5.88688e-08 -8.16356e-09 -4.41914e-08 -6.3475e-08 -6.01202e-08 -2.66468e-08 -3.25156e-08 -1.6277e-08 -1.10259e-07
          -4.09555e-09 -4.99307e-09 -1.61834e-08 -1.35341e-07 -1.69747e-07 -6.73384e-09 -9.8808e-08 -1.44027e-08 -9.69182e-08 -6.61361e-08 -9.14225e-08 -1.49085e-08
          -1.46483e-08 -9.95018e-09 -1.27572e-07 -2.26534e-09 -3.89151e-09 -1.80032e-08 -1.39677e-07 -1.51077e-07 -2.55739e-09 -3.25726e-08 -1.32588e-08 -1.55106e-07
          -4.80283e-08 -1.43848e-07 -5.7679e-09 1.56425e-09 -2.92557e-09 -1.12585e-07 -1.61749e-09 -3.67636e-09 -1.92164e-08 -1.28767e-07 -1.40273e-07 -2.46711e-09
          -5.05603e-09 -8.29804e-09 -1.83217e-07 -2.69699e-08 -2.14761e-07 -5.03349e-09 -1.4895e-09 -1.10474e-08 -1.13932e-07 -1.22422e-09 -3.67344e-09 -2.06126e-08
          -1.16822e-07 -1.27889e-07 -3.48184e-09 1.51696e-09 -5.17038e-09 -1.91457e-07 -1.06431e-08 -2.7844e-07 -3.60969e-09 -1.82064e-09 -1.97889e-08 -1.05165e-07
          -1.09826e-09 -3.30088e-09 -2.24935e-08 -9.27671e-08 -1.1085e-07 -1.20241e-08 5.45589e-10 -3.93293e-09 -1.94223e-07 -3.60862e-09 -3.41133e-07 -3.51204e-09
          -2.48931e-09 -3.37787e-08 -8.33255e-08 -1.66364e-09 -3.00719e-09 -2.4361e-08 -5.60419e-08 -8.3495e-08 -3.5352e-08 -2.90089e-09 -4.68966e-09 -1.98379e-07
          -1.24396e-09 -4.03696e-07 -4.58126e-09 -4.81228e-09 -3.9724e-08 -5.88464e-08 -4.15457e-09 -4.83143e-09 -2.55609e-08 -3.30735e-08 -6.08579e-08 -5.19921e-08
          -2.5983e-09 -7.21645e-09 -2.04574e-07 -1.04349e-09 -4.39597e-07 -1.3194e-08 -5.77367e-09 -3.45814e-08 -3.76338e-08 -1.09237e-08 -7.57728e-09 -2.62621e-08
          -2.99138e-08 -5.94574e-08 -4.29618e-08 -2.31714e-09 -1.18586e-08 -1.95141e-07 -1.48387e-09 -4.41322e-07 -3.89757e-08 -5.57876e-09 -2.42213e-08 -1.80719e-08
          -2.22184e-08 -1.17592e-08 -2.66001e-08 -3.30396e-08 -6.8792e-08 -2.60699e-08 -2.49693e-09 -1.7115e-08 -1.7968e-07 -1.50175e-09 -4.10616e-07 -6.85421e-08
          -1.03123e-08 -1.43122e-08 -5.45319e-09 -2.70713e-08 -2.13164e-08 -2.53059e-08 -4.12537e-08 -6.55561e-08 -1.45286e-08 -2.40156e-09 -2.23426e-08 -1.75456e-07
          -1.05108e-09 -3.68e-07 -8.25623e-08 -1.78677e-08 -1.03809e-08 -2.93189e-09 -2.5293e-08 -3.34178e-08 -2.24713e-08 -5.09572e-08 -5.24801e-08 -6.79566e-09
          -2.82426e-09 -2.7913e-08 -1.72336e-07 -1.28078e-09 -3.10956e-07 -8.5929e-08 -2.5868e-08 -6.63721e-09 -4.04644e-09 -2.87238e-08 -4.92852e-08 -1.88695e-08
          -5.42545e-08 -4.14581e-08 -3.15064e-09 -3.73561e-09 -3.94649e-08 -1.50358e-07 -2.4812e-09 -2.45689e-07 -8.63574e-08 -4.05359e-08 -2.86946e-09 -4.02297e-09
          -2.3546e-08 -7.32722e-08 -1.4968e-08 -5.29141e-08 -3.28517e-08 -1.34472e-09 -2.48112e-09 -5.8094e-08 -1.07845e-07 -3.81726e-09 -1.88058e-07 -9.32521e-08
          -6.12046e-08 -2.05596e-09 -2.72576e-09 -1.53116e-08 -9.5881e-08 -1.16792e-08 -4.74396e-08 -2.33073e-08 -9.49754e-10 -1.00738e-09 -7.19753e-08 -6.84086e-08
          -4.01717e-09 -1.34517e-07 -9.33706e-08 -9.64541e-08 -1.19434e-09 -2.24949e-09 -2.00675e-08 -1.09709e-07 -1.02289e-08 -3.92202e-08 -1.56605e-08 -1.17942e-09
          -4.80847e-10 -7.67939e-08 -3.89475e-08 -3.35684e-09 -9.8477e-08 -6.04954e-08 -1.67739e-07 -2.10332e-09 -3.21181e-09 -2.98378e-08 -1.16465e-07 -1.10194e-08
          -2.992e-08 -1.05507e-08 -1.10089e-09 -1.10785e-10 -7.1489e-08 -2.04118e-08 -2.88406e-09 -7.75131e-08 -2.53599e-08 -2.33155e-07 -3.3081e-09 -5.92533e-09
          -3.62724e-08 -1.21824e-07 -1.26743e-08 -1.87968e-08 -5.37193e-09 -1.77288e-09 -6.74026e-10 -5.29375e-08 -1.39322e-08 -2.83043e-09 -7.344e-08 -1.37885e-08
          -2.46726e-07 -3.01557e-09 -1.13674e-08 -3.97199e-08 -1.2727e-07 -1.57416e-08 -8.76474e-09 -2.14341e-09 -7.984e-10 -4.44389e-10 -2.65035e-08 -1.04426e-08
          -2.33119e-09 -7.78026e-08 -1.11345e-08 -2.12711e-07 -4.18316e-09 -1.95909e-08 -5.21968e-08 -1.3271e-07 -2.05697e-08 -2.32045e-09 -4.82162e-10 1.80339e-10
          7.04029e-11 -6.28472e-09 -3.9943e-09 -8.55149e-10 -3.97208e-08 -5.19059e-09 -9.19933e-08 -2.76039e-09 -1.18855e-08 -3.11977e-08 -6.82357e-08 -1.15532e-08
        </DataArray>
        <DataArray type="Float32" Name="velocity[1]" NumberOfComponents="1" format="ascii">
          2.51189e-25 9.91096e-24 2.63458e-26 -3.39728e-24 1.14076e-25 0 5.45482e-25 1.05883e-25 -9.98162e-26 5.51463e-24 -3.38425e-24 -4.97347e-26
          2.17646e-24 -9.48121e-25 3.92744e-25 9.34056e-25 8.81309e-24 2.10456e-26 -4.82746e-24 -5.11274e-26 8.54944e-24 1.35999e-24 2.69567e-25 -8.38008e-24
          8.56833e-26 0 3.72649e-26 -6.98934e-26 -6.89799e-27 2.53954e-25 2.53986e-24 -1.29429e-23 -3.30273e-24 3.53742e-24 1.3833e-25 0
          1.08007e-24 5.3711e-25 -6.86228e-25 0 6.46964e-24 -1.09262e-23 0 9.93669e-25 -2.46282e-25 -5.65249e-24 2.26524e-23 -2.35596e-24
          2.37413e-24 6.01204e-25 1.10543e-23 -2.17604e-23 2.83226e-23 -2.02906e-24 -3.10011e-25 3.38493e-24 -3.96754e-24 2.48014e-24 -1.11014e-24 8.35842e-25
          -4.6999e-26 -7.51516e-23 3.54932e-24 4.27752e-24 6.33024e-26 -2.45146e-24 -1.68863e-25 7.50588e-27 3.41805e-24 -4.79527e-24 5.44404e-24 -8.7512e-24
          4.06294e-26 1.30585e-25 -1.34033e-24 -5.48826e-26 4.70049e-24 -2.54667e-25 3.8762e-24 -5.24025e-26 -4.6453e-24 0 6.47589e-25 4.17602e-24
          -1.06799e-23 -1.10186e-23 1.35284e-23 -1.07101e-24 5.70989e-25 1.34359e-24 -7.19585e-25 5.99465e-25 0 3.54549e-24 -5.23745e-25 -1.10084e-23
          6.92062e-25 -7.61786e-25 -2.39456e-25 -2.7032e-26 2.85888e-25 1.94959e-25 -1.01464e-25 1.26331e-26 -1.45757e-24 -1.38645e-25 1.03797e-23 1.08014e-24
          1.33429e-24 4.29219e-26 1.26892e-23 9.60508e-26 1.03505e-25 4.41337e-25 7.81538e-26 -1.38287e-24 -8.32095e-24 8.38288e-26 -2.50186e-25 1.67456e-24
          -9.41413e-25 -7.63911e-24 -1.40324e-25 -1.58507e-24 -1.92122e-25 2.02387e-24 0 0 3.37766e-25 -8.57411e-26 2.70476e-25 2.84224e-24
          1.42467e-25 6.08723e-26 9.57048e-28 -8.62547e-24 2.34071e-24 1.67563e-24 -5.99175e-25 -2.28957e-24 2.5614e-24 -4.81268e-24 5.31463e-24 -2.8456e-25
          -1.20572e-26 2.5078e-25 2.6249e-24 -6.9369e-25 0 -1.8212e-24 7.14936e-26 -1.14127e-25 2.42701e-24 -2.24542e-25 2.27034e-24 -3.27557e-27
          -3.17939e-24 8.81365e-24 6.08113e-26 2.32545e-25 -7.67954e-25 4.08083e-24 1.45837e-24 -8.47705e-26 4.23852e-26 -2.22208e-24 2.19385e-24 -1.74894e-25
          1.09498e-25 -1.42187e-24 -1.60831e-23 2.63052e-26 1.17402e-24 -2.43337e-24 1.57098e-25 6.10879e-25 1.51346e-24 -6.4032e-25 7.90713e-25 -6.56507e-26
          2.42597e-24 4.17492e-24 0 -8.54371e-27 4.46942e-25 1.83938e-24 4.48662e-26 -9.03463e-25 -2.77295e-24 5.71828e-27 -1.40288e-24 -6.16909e-25
          1.0541e-24 -6.58254e-25 -3.62863e-28 2.8097e-25 -3.00727e-27 5.30604e-25 -3.97145e-26 1.77392e-27 1.37e-23 -3.773e-26 -3.86944e-24 5.19464e-24
          -1.17316e-24 1.39074e-24 1.7238e-24 -3.45836e-24 4.08846e-28 -1.87247e-24 -2.7004e-24 -4.57349e-24 2.94738e-27 2.03726e-25 4.41066e-25 -3.1661e-28
          -3.06826e-26 -6.75468e-24 1.77676e-24 0 0 2.30581e-25 2.96819e-24 -3.97358e-25 3.49257e-24 0 9.78895e-25 0
          -2.69417e-25 4.25631e-25 -2.03887e-28 6.63797e-26 -6.10834e-24 6.59364e-28 2.68647e-28 3.16014e-28 3.2075e-24 -8.06667e-29 -9.48511e-25 -1.61947e-24
          -9.2251e-29 7.34451e-25 4.6815e-28 -4.23591e-26 1.37107e-24 -7.79423e-24 0 -8.07815e-24 0 1.50771e-28 2.37063e-24 -2.9306e-24
          -1.3186e-24 1.61054e-28 1.01336e-24 0 2.85451e-24 0 3.11349e-25 1.35085e-24 3.78165e-24 8.66972e-26 -4.92212e-24 -4.22759e-24
          -1.6347e-24 1.37959e-25 3.87268e-26 6.58242e-29 -1.34694e-24 -8.01723e-25 3.36509e-24 -1.73896e-24 1.88217e-24 -1.52634e-24 6.33143e-25 6.58775e-24
          -5.56407e-26 -3.39872e-24 7.83128e-24 4.21059e-24 -2.53407e-24 5.46643e-26 7.00128e-25 -2.95223e-28 7.87976e-25 2.60537e-28 -3.06478e-24 6.65834e-25
          -1.39002e-24 2.31802e-25 -2.03587e-24 -9.32014e-26 -4.40352e-24 -3.96003e-24 7.23742e-24 2.06307e-25 2.70795e-24 8.18237e-25 -2.73507e-25 -6.51376e-25
          -8.10456e-25 4.86338e-25 0 -3.17278e-26 -9.40486e-25 3.42744e-24 -6.02457e-24 6.02614e-24 -4.36687e-24 1.21525e-27 0 0
          1.81874e-25 -4.88584e-28 1.04516e-24 -9.18214e-25 -9.67051e-25 8.9046e-25 -1.49483e-24 -5.9304e-25 -1.00169e-24 1.75395e-26 4.23283e-25 -2.85699e-24
          1.02772e-23 -1.94586e-25 -4.92466e-24 3.53747e-25 7.12959e-25 -2.36673e-29 -6.40587e-25 -2.6262e-28 -3.24395e-28 8.98985e-26 -2.16595e-24 3.81812e-25
          -9.64945e-26 7.80215e-24 -3.23737e-24 0 -2.07882e-25 -6.49418e-25 5.01906e-24 -5.85082e-25 0 -3.60908e-25 -3.08332e-28 -2.93654e-25
          4.97495e-25 -9.76276e-25 -1.65081e-24 -2.67005e-25 -2.06452e-24 8.0668e-25 -2.2352e-23 0 2.23401e-23 -1.63613e-23 1.34998e-23 3.39729e-25
        </DataArray>
        <DataArray type="Float32" Name="velocity[2]" NumberOfComponents="1" format="ascii">
          -2.16112e-10 8.01653e-09 -5.77175e-09 -8.49291e-09 -3.6668e-09 -3.8714e-09 -3.89226e-09 -3.35194e-09 -3.43094e-09 -3.39693e-09 -3.09062e-09 -2.98401e-09
          -2.52527e-09 -1.92325e-09 -1.27905e-09 -1.26446e-09 2.99103e-08 -4.92609e-09 -1.66808e-08 -2.15745e-09 -2.44869e-09 -2.83981e-09 -3.21455e-09 -4.03329e-09
          -4.17154e-09 -3.43583e-09 -4.61304e-09 -3.08322e-09 -1.52908e-09 -1.71365e-09 -4.51111e-09 4.95226e-08 -1.62763e-09 -1.78486e-08 -4.4221e-09 -4.19785e-09
          -4.03504e-09 -4.48041e-09 -5.841e-09 -5.73621e-09 -4.00727e-09 -8.06294e-09 -3.53234e-09 -1.99636e-09 -2.28087e-09 -6.54057e-09 5.25848e-08 -2.90814e-10
          -7.97815e-09 -7.11631e-09 -8.7636e-09 -1.01388e-08 -8.47667e-09 -7.08081e-09 -6.83278e-09 -3.69211e-09 -1.23794e-08 -2.47918e-09 -2.20734e-09 -2.94389e-09
          -8.38903e-09 1.50766e-08 1.08674e-09 -1.32715e-08 -5.48781e-09 -1.08614e-08 -1.32369e-08 -1.19935e-08 -6.43529e-09 -8.1944e-09 -5.59718e-09 -2.10607e-08
          -1.05178e-09 -1.44395e-09 -3.20544e-09 -2.32334e-08 -2.94254e-08 -1.79256e-09 -2.05378e-08 -7.72339e-09 -2.06533e-08 -1.4245e-08 -1.89241e-08 -6.18359e-09
          -4.47513e-09 -4.09095e-10 -2.16651e-08 -6.68743e-10 -1.11636e-09 -3.42254e-09 -2.49383e-08 -2.74191e-08 -1.43145e-09 -7.94694e-09 -5.90457e-09 -3.01312e-08
          -1.06635e-08 -2.68562e-08 -1.70389e-09 -5.81273e-10 -9.80873e-10 -2.0051e-08 -5.44347e-10 -9.49658e-10 -3.53856e-09 -2.30546e-08 -2.56984e-08 -1.65214e-09
          -2.31895e-09 -3.22859e-09 -3.39724e-08 -6.52297e-09 -3.90331e-08 -1.21537e-09 -6.95757e-10 -2.35703e-09 -2.04892e-08 -7.14053e-10 -1.23886e-09 -3.94443e-09
          -2.09679e-08 -2.35305e-08 -1.75824e-09 -9.19909e-10 -2.28603e-09 -3.50769e-08 -3.21881e-09 -4.98085e-08 -6.38439e-10 -3.81094e-10 -3.17748e-09 -1.84376e-08
          -6.96118e-10 -1.15083e-09 -4.27807e-09 -1.7527e-08 -2.23227e-08 -4.66182e-09 -1.62413e-09 -2.26514e-09 -3.58056e-08 -2.23393e-09 -6.08927e-08 -4.34068e-10
          -2.37656e-10 -5.34405e-09 -1.44754e-08 -8.83346e-10 -1.13434e-09 -4.60215e-09 -1.11109e-08 -1.79895e-08 -9.01281e-09 -1.99317e-09 -2.268e-09 -3.6206e-08
          -1.27881e-09 -7.1499e-08 -3.33571e-10 -2.82506e-10 -6.47786e-09 -1.0681e-08 -1.64123e-09 -1.3332e-09 -4.59815e-09 -6.13663e-09 -1.16935e-08 -1.039e-08
          -1.60469e-09 -2.34252e-09 -3.69374e-08 -9.32615e-10 -7.80588e-08 -2.19475e-09 -4.53165e-10 -5.84229e-09 -7.22707e-09 -2.79905e-09 -1.76547e-09 -4.77169e-09
          -5.18655e-09 -1.00166e-08 -7.68898e-09 -1.39222e-09 -2.92016e-09 -3.56384e-08 -2.03513e-09 -7.97416e-08 -7.88004e-09 -8.96655e-10 -4.56445e-09 -4.49768e-09
          -5.39255e-09 -2.55554e-09 -4.658e-09 -5.70425e-09 -1.17107e-08 -4.596e-09 -1.02748e-09 -3.47156e-09 -3.21744e-08 -9.38582e-10 -7.37364e-08 -1.33898e-08
          -2.25855e-09 -3.02948e-09 -1.8457e-09 -5.93429e-09 -4.00027e-09 -4.05951e-09 -6.84413e-09 -1.104e-08 -2.79217e-09 -1.07425e-09 -4.45057e-09 -3.1326e-08
          -6.05679e-10 -6.57895e-08 -1.5793e-08 -4.10878e-09 -2.67182e-09 -1.38289e-09 -5.32016e-09 -5.7753e-09 -3.41937e-09 -8.76502e-09 -9.12844e-09 -1.65106e-09
          -1.18185e-09 -5.42834e-09 -3.08675e-08 -8.11698e-10 -5.64548e-08 -1.77593e-08 -6.92395e-09 -3.56758e-09 -3.25717e-09 -7.31756e-09 -9.04741e-09 -2.66876e-09
          -9.56691e-09 -7.5468e-09 -1.0818e-09 -1.22532e-09 -7.04212e-09 -2.70338e-08 -1.84536e-09 -4.5403e-08 -1.80386e-08 -9.59456e-09 -2.5727e-09 -2.87005e-09
          -6.94882e-09 -1.39588e-08 -1.99656e-09 -9.42001e-09 -6.16605e-09 -9.0799e-10 -1.28814e-09 -1.06441e-08 -1.9967e-08 -2.69225e-09 -3.59974e-08 -1.96794e-08
          -1.31559e-08 -2.33339e-09 -2.48712e-09 -4.6972e-09 -1.74431e-08 -1.60522e-09 -8.63933e-09 -4.9437e-09 -1.21723e-09 -1.15629e-09 -1.34509e-08 -1.3369e-08
          -2.78852e-09 -2.63931e-08 -2.01659e-08 -2.0165e-08 -2.40457e-09 -2.63834e-09 -5.5011e-09 -2.01468e-08 -1.77397e-09 -7.18699e-09 -3.40498e-09 -9.99837e-10
          -9.54976e-10 -1.44009e-08 -8.29869e-09 -2.64206e-09 -1.98008e-08 -1.50095e-08 -3.35858e-08 -2.43218e-09 -2.46474e-09 -6.72992e-09 -2.13883e-08 -2.236e-09
          -5.62368e-09 -2.71258e-09 -1.16076e-09 -9.3391e-10 -1.3833e-08 -5.40344e-09 -2.57172e-09 -1.59174e-08 -7.48288e-09 -4.39499e-08 -2.6732e-09 -3.05858e-09
          -8.24787e-09 -2.26272e-08 -2.49348e-09 -3.70852e-09 -1.83784e-09 -1.28994e-09 -1.06275e-09 -1.09277e-08 -4.76507e-09 -2.8528e-09 -1.52279e-08 -4.75106e-09
          -4.61512e-08 -3.3988e-09 -4.6397e-09 -9.24463e-09 -2.42502e-08 -3.53961e-09 -1.82057e-09 -9.871e-10 -9.09603e-10 -9.77242e-10 -6.34506e-09 -4.37094e-09
          -3.07195e-09 -1.6353e-08 -4.59912e-09 -4.13374e-08 -5.63041e-09 -8.01181e-09 -1.28303e-08 -2.57199e-08 -4.47278e-09 -5.63991e-10 -4.18864e-10 -3.10803e-10
          -3.11375e-10 -1.76397e-09 -1.88198e-09 -1.5379e-09 -9.47337e-09 -4.75585e-09 -2.40508e-08 -1.03074e-08 -9.02229e-09 -1.02767e-08 -1.43133e-08 -2.40154e-09
        </DataArray>
        <DataArray type="Float32" Name="z[0]" NumberOfComponents="1" format="ascii">
          0.150578 0.150579 0.15058 0.150582 0.150582 0.150583 0.150584 0.150585 0.150585 0.150586 0.150587 0.150588
          0.150589 0.150591 0.150596 0.150581 0.150582 0.150583 0.150585 0.150586 0.150587 0.150587 0.150588 0.150588
          0.150589 0.15059 0.150591 0.150593 0.150595 0.150599 0.150584 0.150585 0.150587 0.150588 0.150589 0.15059
          0.150591 0.151324 0.150592 0.150593 0.150593 0.150595 0.150596 0.150598 0.150602 0.150588 0.150589 0.15059
          0.150591 0.161562 0.241699 0.316908 0.376833 0.150595 0.150596 0.150597 0.150598 0.150599 0.150601 0.150605
          0.150591 0.150592 0.210546 0.427966 0.437091 0.445304 0.422883 0.399168 0.150598 0.150599 0.1506 0.150601
          0.150602 0.150604 0.150609 0.150594 0.150595 0.211448 0.460177 0.473205 0.475117 0.460269 0.439368 0.152449
          0.150602 0.150603 0.150604 0.150605 0.150607 0.150612 0.150597 0.150599 0.216333 0.466732 0.482034 0.48623