<?xml version="1.0"?>
<VTKFile type="UnstructuredGrid" version="0.1" byte_order="LittleEndian">
  <UnstructuredGrid>
    <Piece NumberOfCells="360" NumberOfPoints="800">
      <CellData Scalars="pressure[0]">
        <DataArray type="Float32" Name="pressure[0]" NumberOfComponents="1" format="ascii">
          2.08342e+07 2.08486e+07 2.13413e+07 2.18612e+07 2.22603e+07 2.27336e+07 2.28856e+07 2.29397e+07 2.30051e+07 2.30763e+07 2.32998e+07 2.36732e+07
          2.39507e+07 2.46207e+07 2.53985e+07 2.08778e+07 2.08923e+07 2.14338e+07 2.19674e+07 2.24128e+07 2.29157e+07 2.30287e+07 2.30705e+07 2.31388e+07
          2.32215e+07 2.35439e+07 2.39245e+07 2.41427e+07 2.48228e+07 2.55663e+07 2.09216e+07 2.09361e+07 2.15016e+07 2.21009e+07 2.24963e+07 2.29714e+07
          2.31111e+07 2.31753e+07 2.32694e+07 2.33888e+07 2.38355e+07 2.42783e+07 2.44759e+07 2.5085e+07 2.57809e+07 2.09659e+07 2.09808e+07 2.13763e+07
          2.22296e+07 2.26136e+07 2.30738e+07 2.32053e+07 2.32653e+07 2.34251e+07 2.36292e+07 2.42301e+07 2.4706e+07 2.48816e+07 2.53917e+07 2.6049e+07
          2.10549e+07 2.10809e+07 1.97706e+07 2.2315e+07 2.27636e+07 2.32818e+07 2.34423e+07 2.35078e+07 2.3765e+07 2.41738e+07 2.47005e+07 2.51103e+07
          2.528e+07 2.57351e+07 2.63113e+07 2.12467e+07 2.12898e+07 2.17424e+07 2.26901e+07 2.33914e+07 2.39893e+07 2.40602e+07 2.41222e+07 2.4358e+07
          2.47662e+07 2.5222e+07 2.54633e+07 2.56462e+07 2.60814e+07 2.6605e+07 2.14891e+07 2.15382e+07 2.22647e+07 2.35687e+07 2.41561e+07 2.46431e+07
          2.47205e+07 2.48042e+07 2.49332e+07 2.53331e+07 2.56731e+07 2.57674e+07 2.59432e+07 2.64531e+07 2.70137e+07 2.18334e+07 2.18869e+07 2.29459e+07
          2.39448e+07 2.47473e+07 2.52087e+07 2.52655e+07 2.53201e+07 2.54489e+07 2.5751e+07 2.59641e+07 2.60331e+07 2.62718e+07 2.68326e+07 2.75777e+07
          2.23292e+07 2.23914e+07 2.34081e+07 2.43111e+07 2.53818e+07 2.57071e+07 2.58134e+07 2.59173e+07 2.60037e+07 2.61647e+07 2.62582e+07 2.6285e+07
          2.65331e+07 2.72565e+07 2.81391e+07 2.29299e+07 2.3031e+07 2.36879e+07 2.43417e+07 2.59155e+07 2.61423e+07 2.63783e+07 2.65925e+07 2.6594e+07
          2.659e+07 2.66091e+07 2.66367e+07 2.69e+07 2.76797e+07 2.84718e+07 2.38102e+07 2.39539e+07 2.42989e+07 2.47589e+07 2.62899e+07 2.64596e+07
          2.68368e+07 2.71574e+07 2.7051e+07 2.69912e+07 2.69615e+07 2.69996e+07 2.72252e+07 2.80286e+07 2.87232e+07 2.44643e+07 2.4576e+07 2.48605e+07
          2.52499e+07 2.66588e+07 2.67694e+07 2.73026e+07 2.77323e+07 2.77729e+07 2.73712e+07 2.73225e+07 2.73698e+07 2.76329e+07 2.84047e+07 2.94994e+07
          2.55636e+07 2.56029e+07 2.56189e+07 2.59661e+07 2.71863e+07 2.72972e+07 2.78693e+07 2.8367e+07 2.84663e+07 2.84232e+07 2.83498e+07 2.85615e+07
          2.9085e+07 3.00005e+07 3.02091e+07 2.65384e+07 2.65718e+07 2.63913e+07 2.67674e+07 2.80425e+07 2.81538e+07 2.86272e+07 2.89988e+07 2.90692e+07
          2.91463e+07 2.9205e+07 2.96817e+07 3.03443e+07 3.08762e+07 3.06406e+07 2.73046e+07 2.73011e+07 2.73333e+07 2.84006e+07 2.88951e+07 2.89581e+07
          2.92708e+07 2.94954e+07 2.95468e+07 2.96272e+07 2.97833e+07 3.05473e+07 3.1141e+07 3.13157e+07 3.11551e+07 2.7986e+07 2.80074e+07 2.81002e+07
          2.91582e+07 2.93965e+07 2.9451e+07 2.96714e+07 2.98158e+07 2.98652e+07 2.99396e+07 3.02346e+07 3.09648e+07 3.15076e+07 3.18163e+07 3.16401e+07
          2.86915e+07 2.87411e+07 2.91214e+07 2.96823e+07 2.98025e+07 2.98401e+07 2.9953e+07 3.00524e+07 3.01005e+07 3.01639e+07 3.05561e+07 3.14262e+07
          3.20122e+07 3.23137e+07 3.20837e+07 2.92605e+07 2.93202e+07 2.96864e+07 2.99624e+07 3.00838e+07 3.01277e+07 3.02158e+07 3.02901e+07 3.03402e+07
          3.0398e+07 3.08807e+07 3.18011e+07 3.24e+07 3.2646e+07 3.25252e+07 2.95718e+07 2.9638e+07 2.98547e+07 3.01676e+07 3.03297e+07 3.03771e+07
          3.04549e+07 3.05207e+07 3.05667e+07 3.06224e+07 3.11534e+07 3.21712e+07 3.2785e+07 3.29687e+07 3.31344e+07 2.98215e+07 2.988e+07 3.00747e+07
          3.03865e+07 3.05462e+07 3.05943e+07 3.06701e+07 3.07327e+07 3.0779e+07 3.0841e+07 3.13675e+07 3.24898e+07 3.31643e+07 3.33085e+07 3.37135e+07
          3.00315e+07 3.00978e+07 3.0253e+07 3.05417e+07 3.07401e+07 3.07931e+07 3.08749e+07 3.09416e+07 3.10038e+07 3.10824e+07 3.18272e+07 3.30283e+07
          3.35167e+07 3.36694e+07 3.41651e+07 3.02328e+07 3.03016e+07 3.04401e+07 3.07224e+07 3.09246e+07 3.0983e+07 3.10784e+07 3.11551e+07 3.12362e+07
          3.13268e+07 3.23328e+07 3.35813e+07 3.38822e+07 3.40681e+07 3.4605e+07 3.04166e+07 3.04795e+07 3.06461e+07 3.09436e+07 3.11092e+07 3.11764e+07
          3.12891e+07 3.13785e+07 3.14835e+07 3.15967e+07 3.27624e+07 3.4039e+07 3.42971e+07 3.45054e+07 3.49214e+07 3.05847e+07 3.06446e+07 3.0791e+07
          3.10895e+07 3.13016e+07 3.13705e+07 3.14976e+07 3.1602e+07 3.17305e+07 3.18835e+07 3.32364e+07 3.44376e+07 3.47243e+07 3.4913e+07 3.52016e+07
        </DataArray>
        <DataArray type="Float32" Name="pressure[1]" NumberOfComponents="1" format="ascii">
          2.08342e+07 2.08486e+07 2.13413e+07 2.18612e+07 2.22603e+07 2.27336e+07 2.28856e+07 2.29397e+07 2.30051e+07 2.30763e+07 2.32998e+07 2.36732e+07
          2.39507e+07 2.46207e+07 2.53985e+07 2.08778e+07 2.08923e+07 2.14338e+07 2.19674e+07 2.24128e+07 2.29157e+07 2.30287e+07 2.30705e+07 2.31388e+07
          2.32215e+07 2.35439e+07 2.39245e+07 2.41427e+07 2.48228e+07 2.55663e+07 2.09216e+07 2.09361e+07 2.15016e+07 2.21009e+07 2.24963e+07 2.29714e+07
          2.31111e+07 2.31753e+07 2.32694e+07 2.33888e+07 2.38355e+07 2.42783e+07 2.44759e+07 2.5085e+07 2.57809e+07 2.09659e+07 2.09808e+07 2.13763e+07
          2.22296e+07 2.26136e+07 2.30738e+07 2.32053e+07 2.32653e+07 2.34251e+07 2.36292e+07 2.42301e+07 2.4706e+07 2.48816e+07 2.53917e+07 2.6049e+07
          2.10549e+07 2.10809e+07 1.97706e+07 2.2315e+07 2.27636e+07 2.32818e+07 2.34423e+07 2.35078e+07 2.3765e+07 2.41738e+07 2.47005e+07 2.51103e+07
          2.528e+07 2.57351e+07 2.63113e+07 2.12467e+07 2.12898e+07 2.17424e+07 2.26901e+07 2.33914e+07 2.39893e+07 2.40602e+07 2.41222e+07 2.4358e+07
          2.47662e+07 2.5222e+07 2.54633e+07 2.56462e+07 2.60814e+07 2.6605e+07 2.14891e+07 2.15382e+07 2.22647e+07 2.35687e+07 2.41561e+07 2.46431e+07
          2.47205e+07 2.48042e+07 2.49332e+07 2.53331e+07 2.56731e+07 2.57674e+07 2.59432e+07 2.64531e+07 2.70137e+07 2.18334e+07 2.18869e+07 2.29459e+07
          2.39448e+07 2.47473e+07 2.52087e+07 2.52655e+07 2.53201e+07 2.54489e+07 2.5751e+07 2.59641e+07 2.60331e+07 2.62718e+07 2.68326e+07 2.75777e+07
          2.23292e+07 2.23914e+07 2.34081e+07 2.43111e+07 2.53818e+07 2.57071e+07 2.58134e+07 2.59173e+07 2.60037e+07 2.61647e+07 2.62582e+07 2.6285e+07
          2.65331e+07 2.72565e+07 2.81391e+07 2.29299e+07 2.3031e+07 2.36879e+07 2.43417e+07 2.59155e+07 2.61423e+07 2.63783e+07 2.65925e+07 2.6594e+07
          2.659e+07 2.66091e+07 2.66367e+07 2.69e+07 2.76797e+07 2.84718e+07 2.38102e+07 2.39539e+07 2.42989e+07 2.47589e+07 2.62899e+07 2.64596e+07
          2.68368e+07 2.71574e+07 2.7051e+07 2.69912e+07 2.69615e+07 2.69996e+07 2.72252e+07 2.80286e+07 2.87232e+07 2.44643e+07 2.4576e+07 2.48605e+07
          2.52499e+07 2.66588e+07 2.67694e+07 2.73026e+07 2.77323e+07 2.77729e+07 2.73712e+07 2.73225e+07 2.73698e+07 2.76329e+07 2.84047e+07 2.94994e+07
          2.55636e+07 2.56029e+07 2.56189e+07 2.59661e+07 2.71863e+07 2.72972e+07 2.78693e+07 2.8367e+07 2.84663e+07 2.84232e+07 2.83498e+07 2.85615e+07
          2.9085e+07 3.00005e+07 3.02091e+07 2.65384e+07 2.65718e+07 2.63913e+07 2.67674e+07 2.80425e+07 2.81538e+07 2.86272e+07 2.89988e+07 2.90692e+07
          2.91463e+07 2.9205e+07 2.96817e+07 3.03443e+07 3.08762e+07 3.06406e+07 2.73046e+07 2.73011e+07 2.73333e+07 2.84006e+07 2.88951e+07 2.89581e+07
          2.92708e+07 2.94954e+07 2.95468e+07 2.96272e+07 2.97833e+07 3.05473e+07 3.1141e+07 3.13157e+07 3.11551e+07 2.7986e+07 2.80074e+07 2.81002e+07
          2.91582e+07 2.93965e+07 2.9451e+07 2.96714e+07 2.98158e+07 2.98652e+07 2.99396e+07 3.02346e+07 3.09648e+07 3.15076e+07 3.18163e+07 3.16401e+07
          2.86915e+07 2.87411e+07 2.91214e+07 2.96823e+07 2.98025e+07 2.98401e+07 2.9953e+07 3.00524e+07 3.01005e+07 3.01639e+07 3.05561e+07 3.14262e+07
          3.20122e+07 3.23137e+07 3.20837e+07 2.92605e+07 2.93202e+07 2.96864e+07 2.99624e+07 3.00838e+07 3.01277e+07 3.02158e+07 3.02901e+07 3.03402e+07
          3.0398e+07 3.08807e+07 3.18011e+07 3.24e+07 3.2646e+07 3.25252e+07 2.95718e+07 2.9638e+07 2.98547e+07 3.01676e+07 3.03297e+07 3.03771e+07
          3.04549e+07 3.05207e+07 3.05667e+07 3.06224e+07 3.11534e+07 3.21712e+07 3.2785e+07 3.29687e+07 3.31344e+07 2.98215e+07 2.988e+07 3.00747e+07
          3.03865e+07 3.05462e+07 3.05943e+07 3.06701e+07 3.07327e+07 3.0779e+07 3.0841e+07 3.13675e+07 3.24898e+07 3.31643e+07 3.33085e+07 3.37135e+07
          3.00315e+07 3.00978e+07 3.0253e+07 3.05417e+07 3.07401e+07 3.07931e+07 3.08749e+07 3.09416e+07 3.10038e+07 3.10824e+07 3.18272e+07 3.30283e+07
          3.35167e+07 3.36694e+07 3.41651e+07 3.02328e+07 3.03016e+07 3.04401e+07 3.07224e+07 3.09246e+07 3.0983e+07 3.10784e+07 3.11551e+07 3.12362e+07
          3.13268e+07 3.23328e+07 3.35813e+07 3.38822e+07 3.40681e+07 3.4605e+07 3.04166e+07 3.04795e+07 3.06461e+07 3.09436e+07 3.11092e+07 3.11764e+07
          3.12891e+07 3.13785e+07 3.14835e+07 3.15967e+07 3.27624e+07 3.4039e+07 3.42971e+07 3.45054e+07 3.49214e+07 3.05847e+07 3.06446e+07 3.0791e+07
          3.10895e+07 3.13016e+07 3.13705e+07 3.14976e+07 3.1602e+07 3.17305e+07 3.18835e+07 3.32364e+07 3.44376e+07 3.47243e+07 3.4913e+07 3.52016e+07
        </DataArray>
        <DataArray type="Float32" Name="pressure[2]" NumberOfComponents="1" format="ascii">
          2.08342e+07 2.08486e+07 2.13413e+07 2.18612e+07 2.22603e+07 2.27336e+07 2.28856e+07 2.29397e+07 2.30051e+07 2.30763e+07 2.32998e+07 2.36732e+07
          2.39507e+07 2.46207e+07 2.53985e+07 2.08778e+07 2.08923e+07 2.14338e+07 2.19674e+07 2.24128e+07 2.29157e+07 2.30287e+07 2.30705e+07 2.31388e+07
          2.32215e+07 2.35439e+07 2.39245e+07 2.41427e+07 2.48228e+07 2.55663e+07 2.09216e+07 2.09361e+07 2.15016e+07 2.21009e+07 2.24963e+07 2.29714e+07
          2.31111e+07 2.31753e+07 2.32694e+07 2.33888e+07 2.38355e+07 2.42783e+07 2.44759e+07 2.5085e+07 2.57809e+07 2.09659e+07 2.09808e+07 2.13763e+07
          2.22296e+07 2.26136e+07 2.30738e+07 2.32053e+07 2.32653e+07 2.34251e+07 2.36292e+07 2.42301e+07 2.4706e+07 2.48816e+07 2.53917e+07 2.6049e+07
          2.10549e+07 2.10809e+07 1.97706e+07 2.2315e+07 2.27636e+07 2.32818e+07 2.34423e+07 2.35078e+07 2.3765e+07 2.41738e+07 2.47005e+07 2.51103e+07
          2.528e+07 2.57351e+07 2.63113e+07 2.12467e+07 2.12898e+07 2.17424e+07 2.26901e+07 2.33914e+07 2.39893e+07 2.40602e+07 2.41222e+07 2.4358e+07
          2.47662e+07 2.5222e+07 2.54633e+07 2.56462e+07 2.60814e+07 2.6605e+07 2.14891e+07 2.15382e+07 2.22647e+07 2.35687e+07 2.41561e+07 2.46431e+07
          2.47205e+07 2.48042e+07 2.49332e+07 2.53331e+07 2.56731e+07 2.57674e+07 2.59432e+07 2.64531e+07 2.70137e+07 2.18334e+07 2.18869e+07 2.29459e+07
          2.39448e+07 2.47473e+07 2.52087e+07 2.52655e+07 2.53201e+07 2.54489e+07 2.5751e+07 2.59641e+07 2.60331e+07 2.62718e+07 2.68326e+07 2.75777e+07
          2.23292e+07 2.23914e+07 2.34081e+07 2.43111e+07 2.53818e+07 2.57071e+07 2.58134e+07 2.59173e+07 2.60037e+07 2.61647e+07 2.62582e+07 2.6285e+07
          2.65331e+07 2.72565e+07 2.81391e+07 2.29299e+07 2.3031e+07 2.36879e+07 2.43417e+07 2.59155e+07 2.61423e+07 2.63783e+07 2.65925e+07 2.6594e+07
          2.659e+07 2.66091e+07 2.66367e+07 2.69e+07 2.76797e+07 2.84718e+07 2.38102e+07 2.39539e+07 2.42989e+07 2.47589e+07 2.62899e+07 2.64596e+07
          2.68368e+07 2.71574e+07 2.7051e+07 2.69912e+07 2.69615e+07 2.69996e+07 2.72252e+07 2.80286e+07 2.87232e+07 2.44643e+07 2.4576e+07 2.48605e+07
          2.52499e+07 2.66588e+07 2.67694e+07 2.73026e+07 2.77323e+07 2.77729e+07 2.73712e+07 2.73225e+07 2.73698e+07 2.76329e+07 2.84047e+07 2.94994e+07
          2.55636e+07 2.56029e+07 2.56189e+07 2.59661e+07 2.71863e+07 2.72972e+07 2.78693e+07 2.8367e+07 2.84663e+07 2.84232e+07 2.83498e+07 2.85615e+07
          2.9085e+07 3.00005e+07 3.02091e+07 2.65384e+07 2.65718e+07 2.63913e+07 2.67674e+07 2.80425e+07 2.81538e+07 2.86272e+07 2.89988e+07 2.90692e+07
          2.91463e+07 2.9205e+07 2.96817e+07 3.03443e+07 3.08762e+07 3.06406e+07 2.73046e+07 2.73011e+07 2.73333e+07 2.84006e+07 2.88951e+07 2.89581e+07
          2.92708e+07 2.94954e+07 2.95468e+07 2.96272e+07 2.97833e+07 3.05473e+07 3.1141e+07 3.13157e+07 3.11551e+07 2.7986e+07 2.80074e+07 2.81002e+07
          2.91582e+07 2.93965e+07 2.9451e+07 2.96714e+07 2.98158e+07 2.98652e+07 2.99396e+07 3.02346e+07 3.09648e+07 3.15076e+07 3.18163e+07 3.16401e+07
          2.86915e+07 2.87411e+07 2.91214e+07 2.96823e+07 2.98025e+07 2.98401e+07 2.9953e+07 3.00524e+07 3.01005e+07 3.01639e+07 3.05561e+07 3.14262e+07
          3.20122e+07 3.23137e+07 3.20837e+07 2.92605e+07 2.93202e+07 2.96864e+07 2.99624e+07 3.00838e+07 3.01277e+07 3.02158e+07 3.02901e+07 3.03402e+07
          3.0398e+07 3.08807e+07 3.18011e+07 3.24e+07 3.2646e+07 3.25252e+07 2.95718e+07 2.9638e+07 2.98547e+07 3.01676e+07 3.03297e+07 3.03771e+07
          3.04549e+07 3.05207e+07 3.05667e+07 3.06224e+07 3.11534e+07 3.21712e+07 3.2785e+07 3.29687e+07 3.31344e+07 2.98215e+07 2.988e+07 3.00747e+07
          3.03865e+07 3.05462e+07 3.05943e+07 3.06701e+07 3.07327e+07 3.0779e+07 3.0841e+07 3.13675e+07 3.24898e+07 3.31643e+07 3.33085e+07 3.37135e+07
          3.00315e+07 3.00978e+07 3.0253e+07 3.05417e+07 3.07401e+07 3.07931e+07 3.08749e+07 3.09416e+07 3.10038e+07 3.10824e+07 3.18272e+07 3.30283e+07
          3.35167e+07 3.36694e+07 3.41651e+07 3.02328e+07 3.03016e+07 3.04401e+07 3.07224e+07 3.09246e+07 3.0983e+07 3.10784e+07 3.11551e+07 3.12362e+07
          3.13268e+07 3.23328e+07 3.35813e+07 3.38822e+07 3.40681e+07 3.4605e+07 3.04166e+07 3.04795e+07 3.06461e+07 3.09436e+07 3.11092e+07 3.11764e+07
          3.12891e+07 3.13785e+07 3.14835e+07 3.15967e+07 3.27624e+07 3.4039e+07 3.42971e+07 3.45054e+07 3.49214e+07 3.05847e+07 3.06446e+07 3.0791e+07
          3.10895e+07 3.13016e+07 3.13705e+07 3.14976e+07 3.1602e+07 3.17305e+07 3.18835e+07 3.32364e+07 3.44376e+07 3.47243e+07 3.4913e+07 3.52016e+07
        </DataArray>
        <DataArray type="Float32" Name="velocity[0]" NumberOfComponents="1" format="ascii">
          -1.4541e-11 2.90645e-08 3.23366e-10 4.98141e-09 -1.30322e-10 -1.37974e-09 -3.77537e-10 1.33257e-09 1.78033e-09 -7.3389e-10 -2.16271e-09 -3.16965e-09
          -2.24014e-09 -6.71864e-10 -2.8037e-09 -1.34526e-09 8.38669e-08 6.55767e-10 7.86541e-09 3.64229e-10 2.09061e-09 8.57967e-09 5.97092e-09 3.6159e-09
          -3.38312e-09 -4.49209e-09 -1.31985e-08 -8.19871e-09 -2.07625e-09 -7.42082e-09 -9.6236e-09 1.27064e-07 1.19362e-09 4.13459e-08 8.65819e-10 5.78036e-09
          1.51834e-08 1.13227e-08 6.85665e-10 -8.16324e-09 -5.54993e-09 -3.27911e-08 -1.14079e-08 -4.26689e-09 -1.10538e-08 -2.38767e-08 1.59762e-07 6.05521e-09
          1.32031e-07 3.6109e-11 -4.6032e-09 -1.57174e-09 -1.94456e-09 -7.71449e-09 -1.71191e-08 -7.55683e-09 -5.7764e-08 -8.04553e-09 -6.02291e-09 -1.49439e-08
          -9.00954e-08 -1.79562e-08 -6.08135e-12 -6.94675e-09 -5.48929e-09 -4.77373e-08 -5.27871e-08 -5.43822e-08 -1.42373e-08 -1.77796e-08 -1.04778e-08 -9.68844e-08
          -4.06056e-09 -5.4561e-09 -1.82681e-08 -1.57397e-07 -1.91843e-07 -6.19403e-09 -1.45887e-07 -1.44399e-08 -1.21284e-07 -7.97021e-08 -1.13933e-07 -1.38502e-08
          -8.73141e-09 -1.46601e-08 -1.36631e-07 -2.38442e-09 -4.31978e-09 -2.04333e-08 -1.59369e-07 -1.68645e-07 -2.62222e-09 -5.71031e-08 -1.47718e-08 -1.82487e-07
          -5.99809e-08 -1.79816e-07 -1.03169e-08 -3.84577e-09 -1.71279e-08 -1.58089e-07 -1.96047e-09 -4.16307e-09 -2.18958e-08 -1.4557e-07 -1.56536e-07 -2.9965e-09
          -1.55693e-08 -1.02935e-08 -2.15032e-07 -3.46176e-08 -2.58293e-07 -7.10937e-09 -2.55819e-09 -1.82733e-08 -1.6736e-07 -1.55301e-09 -4.1771e-09 -2.35578e-08
          -1.30519e-07 -1.41407e-07 -2.22752e-09 -3.05853e-09 -8.69899e-09 -2.32341e-07 -1.26139e-08 -3.24638e-07 -5.27602e-09 -2.69229e-09 -2.90271e-08 -1.54435e-07
          -1.42484e-09 -3.68816e-09 -2.57835e-08 -1.04112e-07 -1.29291e-07 -8.21753e-09 -4.62307e-10 -6.45671e-09 -2.35036e-07 -4.18653e-09 -3.9371e-07 -4.39905e-09
          -3.0949e-09 -4.7812e-08 -1.24337e-07 -2.12758e-09 -3.04529e-09 -2.8028e-08 -7.30602e-08 -1.16419e-07 -2.01084e-08 -2.08939e-09 -5.69009e-09 -2.31854e-07
          -1.41117e-09 -4.59024e-07 -4.68435e-09 -4.06478e-09 -5.92528e-08 -9.26404e-08 -4.97984e-09 -3.46357e-09 -3.00306e-08 -4.7069e-08 -8.42991e-08 -4.25782e-08
          -2.1912e-09 -8.42092e-09 -2.33441e-07 -1.17374e-09 -5.01419e-07 -1.54551e-08 -6.00518e-09 -5.23129e-08 -5.56853e-08 -1.50529e-08 -7.44173e-09 -3.14923e-08
          -3.40868e-08 -6.78243e-08 -4.8332e-08 -4.22911e-09 -1.32305e-08 -2.20364e-07 -1.68499e-09 -5.13462e-07 -4.63849e-08 -7.69528e-09 -3.39113e-08 -2.1984e-08
          -2.93519e-08 -1.46431e-08 -3.20574e-08 -3.6328e-08 -7.8205e-08 -2.8904e-08 -5.2259e-09 -1.95991e-08 -2.04437e-07 -1.72624e-09 -4.84467e-07 -8.1046e-08
          -1.29775e-08 -1.93129e-08 -6.84046e-09 -3.33014e-08 -2.60335e-08 -3.06162e-08 -4.46314e-08 -7.29755e-08 -1.60948e-08 -3.70598e-09 -2.63228e-08 -2.02825e-07
          -1.22482e-09 -4.38467e-07 -9.80027e-08 -2.17988e-08 -1.30256e-08 -3.57665e-09 -3.0643e-08 -4.03722e-08 -2.71949e-08 -5.52972e-08 -5.80834e-08 -7.94113e-09
          -3.35506e-09 -3.23617e-08 -2.00034e-07 -1.5214e-09 -3.72571e-07 -1.0256e-07 -3.10484e-08 -8.05513e-09 -4.83746e-09 -3.44909e-08 -5.91352e-08 -2.27714e-08
          -5.93705e-08 -4.56139e-08 -3.74057e-09 -4.37928e-09 -4.57333e-08 -1.74789e-07 -2.93726e-09 -2.94842e-07 -1.03363e-07 -4.85008e-08 -3.42055e-09 -4.77833e-09
          -2.80584e-08 -8.75351e-08 -1.80053e-08 -5.81691e-08 -3.60386e-08 -1.61817e-09 -2.98421e-09 -6.76461e-08 -1.25731e-07 -4.4945e-09 -2.24664e-07 -1.11271e-07
          -7.3087e-08 -2.43783e-09 -3.23375e-09 -1.8197e-08 -1.14248e-07 -1.39993e-08 -5.22937e-08 -2.57128e-08 -1.10724e-09 -1.20512e-09 -8.41173e-08 -8.00052e-08
          -4.73311e-09 -1.59872e-07 -1.10912e-07 -1.14399e-07 -1.4235e-09 -2.66478e-09 -2.37628e-08 -1.30461e-07 -1.22224e-08 -4.33316e-08 -1.7323e-08 -1.33777e-09
          -5.7611e-10 -9.00788e-08 -4.56846e-08 -3.96158e-09 -1.16931e-07 -7.16053e-08 -1.97664e-07 -2.4739e-09 -3.7812e-09 -3.53341e-08 -1.38247e-07 -1.3127e-08
          -3.31145e-08 -1.16815e-08 -1.24547e-09 -1.49465e-10 -8.40983e-08 -2.39992e-08 -3.40716e-09 -9.19459e-08 -2.99131e-08 -2.73819e-07 -3.87345e-09 -6.95999e-09
          -4.30089e-08 -1.44384e-07 -1.50593e-08 -2.08346e-08 -5.96249e-09 -1.98277e-09 -7.65768e-10 -6.23274e-08 -1.6374e-08 -3.33127e-09 -8.65682e-08 -1.62059e-08
          -2.89239e-07 -3.53599e-09 -1.33842e-08 -4.70679e-08 -1.5061e-07 -1.86687e-08 -9.7299e-09 -2.38648e-09 -8.95328e-10 -5.07292e-10 -3.11666e-08 -1.22371e-08
          -2.73212e-09 -9.11395e-08 -1.30449e-08 -2.49072e-07 -4.9069e-09 -2.30824e-08 -6.16235e-08 -1.56816e-07 -2.43531e-08 -2.57902e-09 -5.38266e-10 1.96563e-10
          7.24716e-11 -7.35958e-09 -4.67222e-09 -9.99692e-10 -4.6404e-08 -6.07308e-09 -1.07657e-07 -3.23672e-09 -1.40024e-08 -3.67688e-08 -8.05683e-08 -1.36693e-08
        </DataArray>
        <DataArray type="Float32" Name="velocity[1]" NumberOfComponents="1" format="ascii">
          2.25985e-27 4.62839e-24 8.10109e-26 7.7417e-25 2.02535e-26 0 5.86738e-26 -1.86418e-25 1.90437e-26 5.99803e-24 -3.85011e-24 2.06682e-26
          2.45997e-24 -9.67894e-25 4.35874e-25 2.0455e-25 3.90679e-24 7.49012e-26 -3.25962e-25 -1.74e-25 7.92898e-24 1.37585e-24 4.32425e-25 -7.60569e-24
          -1.00735e-25 0 -1.91958e-26 2.2531e-26 -1.84858e-29 2.81829e-25 1.082e-24 -6.1249e-24 -1.38001e-24 5.52922e-24 -2.17777e-25 0
          3.92799e-25 -3.47195e-25 -4.6398e-25 0 7.31828e-24 -1.18192e-23 0 1.13057e-24 -2.82512e-25 2.30242e-24 1.0462e-23 -1.28221e-24
          -1.26977e-23 6.44796e-26 1.07176e-23 -2.55055e-23 3.00649e-23 -4.05389e-24 1.19037e-24 3.84022e-24 -4.74318e-24 2.96454e-24 -1.28668e-24 9.6527e-25
          -9.61403e-26 -5.99757e-23 5.1393e-24 1.20468e-23 -5.72711e-25 -5.38886e-24 -2.26381e-26 -6.94729e-26 -1.44953e-25 -6.65378e-24 4.4653e-24 -8.35788e-24
          2.73832e-28 1.34492e-25 -1.51694e-24 -1.22388e-25 5.92756e-24 -3.96576e-25 2.91499e-24 2.57172e-26 -6.10733e-24 0 -3.23477e-26 3.15228e-25
          6.05952e-25 -3.68979e-25 7.04345e-24 -1.28904e-24 7.64884e-25 1.51714e-24 -8.43368e-25 8.36103e-25 0 4.30915e-24 -7.52716e-25 -1.12143e-23
          8.11587e-26 9.16544e-27 -1.90997e-24 -2.28339e-28 4.43593e-28 3.7335e-28 1.8522e-26 1.61444e-28 -1.65864e-24 -1.72195e-25 1.14804e-23 1.39377e-24
          2.7452e-24 1.01824e-25 1.40486e-23 -2.71444e-26 7.66872e-26 3.64721e-25 3.40734e-27 -2.54597e-24 -1.22337e-23 1.76455e-28 -3.29322e-25 1.91694e-24
          -1.352e-24 -8.1883e-24 6.51924e-26 -1.76113e-24 -1.43423e-25 2.56933e-24 0 0 2.09593e-25 -3.6193e-28 3.16149e-25 4.22839e-24
          3.56465e-28 6.06305e-26 1.29465e-28 -9.54754e-24 1.05758e-24 1.3363e-24 -3.0152e-25 -2.07239e-24 2.93368e-24 -5.50002e-24 5.86914e-24 -1.30956e-25
          -3.83647e-26 1.47813e-25 3.48011e-24 -7.7795e-25 0 -2.09012e-24 3.09427e-24 1.60359e-25 8.37965e-25 -1.77084e-25 1.95932e-24 -1.04849e-27
          -3.58726e-24 8.57483e-24 7.66657e-26 1.11716e-25 -4.66936e-25 6.89686e-24 1.73105e-24 -2.71241e-25 1.3562e-25 -2.59337e-24 7.42365e-24 -2.65174e-24
          -1.55221e-25 -1.38089e-24 -1.82273e-23 3.04351e-26 2.30762e-24 -3.54412e-24 -1.89385e-25 1.58317e-24 3.23385e-24 -1.74094e-24 1.01822e-24 -9.15659e-26
          2.70398e-24 4.66985e-24 0 -2.39863e-25 4.10345e-25 2.21165e-24 4.91358e-26 -4.29206e-25 -3.21038e-24 2.9211e-28 -1.92753e-24 -7.79747e-25
          1.05255e-24 -8.35052e-25 -5.21e-29 2.3757e-25 2.00704e-28 8.39958e-25 1.70159e-25 2.4582e-28 1.5032e-23 -4.23022e-26 -4.07119e-24 5.83645e-24
          -9.40189e-25 1.92748e-24 2.02214e-24 -4.18025e-24 -3.2684e-29 -2.26905e-24 -2.94345e-24 -5.05722e-24 -9.07387e-28 3.63608e-25 4.65222e-25 7.82556e-28
          -3.53157e-26 -7.54167e-24 1.98558e-24 0 0 2.83341e-25 3.49544e-24 -4.40615e-25 4.22645e-24 0 1.09166e-24 0
          -3.09071e-25 4.73469e-25 5.7186e-28 8.14071e-26 -7.16554e-24 -9.25976e-29 -1.08439e-28 -2.06295e-28 3.69625e-24 -4.66609e-28 -1.10129e-24 -1.95744e-24
          5.46955e-29 8.46215e-25 1.99985e-28 -6.27127e-26 1.60485e-24 -9.18962e-24 0 -9.42374e-24 0 2.30545e-28 2.73647e-24 -3.39641e-24
          -1.57207e-24 3.08099e-28 1.21678e-24 0 3.12135e-24 0 3.71769e-25 1.47917e-24 4.51856e-24 1.03181e-25 -5.99174e-24 -5.12756e-24
          -1.92303e-24 1.6246e-25 4.78454e-26 -8.62462e-29 -1.58925e-24 -9.58877e-25 3.71447e-24 -1.89584e-24 2.05327e-24 -1.66542e-24 7.59088e-25 7.69454e-24
          -6.61153e-26 -4.07736e-24 9.32257e-24 4.88868e-24 -2.93852e-24 6.45488e-26 8.25747e-25 -4.5153e-28 9.40633e-25 3.64939e-29 -3.36898e-24 7.30199e-25
          -1.53074e-24 3.34762e-25 -2.37891e-24 -1.07404e-25 -5.19228e-24 -4.70113e-24 8.44475e-24 2.39863e-25 3.15297e-24 9.7234e-25 -3.1819e-25 -7.81809e-25
          -8.93168e-25 5.36637e-25 0 -3.43655e-26 -1.09681e-24 3.90534e-24 -6.86669e-24 6.86707e-24 -5.05906e-24 1.17087e-27 0 0
          2.20465e-25 -6.43298e-28 1.24094e-24 -1.01528e-24 -1.0669e-24 9.84327e-25 -1.65249e-24 -7.94802e-25 -1.17551e-24 2.03052e-26 4.51252e-25 -3.2998e-24
          1.19484e-23 -2.29792e-25 -5.75701e-24 4.10009e-25 8.39819e-25 -1.5017e-28 -7.10386e-25 -1.62858e-28 -1.50301e-28 1.00931e-25 -2.55626e-24 4.49686e-25
          -1.13876e-25 9.01368e-24 -3.75122e-24 0 -2.43459e-25 -7.64638e-25 5.85227e-24 -6.72204e-25 0 -4.00972e-25 -1.39564e-28 -3.26578e-25
          5.54507e-25 -1.1436e-24 -1.90191e-24 -3.11316e-25 -2.45699e-24 9.43829e-25 -2.61192e-23 0 2.61495e-23 -1.92127e-23 1.58993e-23 3.98812e-25
        </DataArray>
        <DataArray type="Float32" Name="velocity[2]" NumberOfComponents="1" format="ascii">
          8.90157e-12 3.7306e-09 -2.73766e-09 -2.1032e-09 -3.17082e-09 -3.27614e-09 -3.00724e-09 -2.72269e-09 -2.77519e-09 -3.27806e-09 -3.33846e-09 -3.16625e-09
          -2.64171e-09 -2.09483e-09 -1.42864e-09 -1.38867e-10 1.37283e-08 -2.16052e-09 -6.97729e-10 -1.87687e-09 -1.79582e-09 -1.11266e-09 -1.90198e-09 -2.39827e-09
          -3.53921e-09 -3.62142e-09 -4.71393e-09 -3.15577e-09 -1.69655e-09 -1.91272e-09 -1.22079e-09 2.2497e-08 -5.76339e-10 4.75889e-09 -4.05958e-09 -3.0771e-09
          -1.27211e-09 -1.92418e-09 -3.66211e-09 -4.90173e-09 -4.2362e-09 -8.19348e-09 -3.67895e-09 -2.20782e-09 -2.55537e-09 -3.70786e-09 2.84139e-08 2.20487e-10
          1.93912e-08 -6.48788e-09 -6.76787e-09 -5.40695e-09 -4.67699e-09 -4.94458e-09 -6.00465e-09 -3.97518e-09 -1.2015e-08 -2.70726e-09 -2.4913e-09 -3.32454e-09
          -1.19171e-08 1.82604e-09 -8.21917e-10 -8.78753e-09 -1.2051e-08 -1.75451e-08 -1.58474e-08 -1.41389e-08 -5.99685e-09 -6.76564e-09 -5.5772e-09 -1.90934e-08
          -1.18715e-09 -1.65302e-09 -3.63885e-09 -2.71436e-08 -3.35161e-08 -1.97638e-09 -2.95851e-08 -8.86636e-09 -2.56356e-08 -1.67439e-08 -2.24588e-08 -4.31301e-09
          -3.67206e-09 -4.72295e-09 -2.53083e-08 -9.00649e-10 -1.32371e-09 -3.90678e-09 -2.84639e-08 -3.0605e-08 -1.28025e-09 -1.25235e-08 -7.14718e-09 -3.59941e-08
          -1.36727e-08 -3.39122e-08 -3.02334e-09 -2.08994e-09 -4.47724e-09 -2.88125e-08 -7.58412e-10 -1.11988e-09 -4.04436e-09 -2.60882e-08 -2.87627e-08 -2.0465e-09
          -4.78835e-09 -4.41764e-09 -4.01093e-08 -8.23425e-09 -4.71748e-08 -2.03252e-09 -1.30127e-09 -4.0065e-09 -3.0188e-08 -9.45245e-10 -1.4602e-09 -4.52432e-09
          -2.34509e-08 -2.60925e-08 -1.87328e-09 -2.31545e-09 -3.61839e-09 -4.27988e-08 -3.92658e-09 -5.82634e-08 -1.16434e-09 -7.42844e-10 -4.76534e-09 -2.70765e-08
          -8.90416e-10 -1.32772e-09 -4.9168e-09 -1.95392e-08 -2.53166e-08 -3.53164e-09 -1.46695e-09 -2.48995e-09 -4.30369e-08 -2.56301e-09 -7.03046e-08 -6.62001e-10
          -4.35134e-10 -7.73495e-09 -2.1643e-08 -1.06272e-09 -1.24709e-09 -5.31865e-09 -1.36622e-08 -2.24306e-08 -5.29686e-09 -1.63959e-09 -2.25938e-09 -4.2089e-08
          -1.44495e-09 -8.14133e-08 -5.32691e-10 -3.64939e-10 -9.91851e-09 -1.65689e-08 -1.8536e-09 -1.30442e-09 -5.58627e-09 -9.19958e-09 -1.78584e-08 -1.02164e-08
          -1.59045e-09 -2.54832e-09 -4.20582e-08 -1.04381e-09 -8.88527e-08 -2.14879e-09 1.82537e-10 -8.52292e-09 -1.10112e-08 -4.64984e-09 -2.25563e-09 -5.74954e-09
          -5.96307e-09 -1.14771e-08 -8.63343e-09 -1.7604e-09 -3.12981e-09 -4.01762e-08 -2.26997e-09 -9.25785e-08 -9.05149e-09 -9.71015e-10 -6.15181e-09 -5.34233e-09
          -6.90665e-09 -3.21184e-09 -5.64142e-09 -6.30269e-09 -1.34517e-08 -5.33005e-09 -1.88494e-09 -4.24728e-09 -3.67151e-08 -1.06436e-09 -8.68775e-08 -1.56126e-08
          -2.57939e-09 -3.85177e-09 -2.19242e-09 -7.23742e-09 -4.89529e-09 -4.92641e-09 -7.41911e-09 -1.2359e-08 -3.12904e-09 -1.40047e-09 -5.27763e-09 -3.6236e-08
          -6.88064e-10 -7.83221e-08 -1.86371e-08 -4.86223e-09 -3.20525e-09 -1.59365e-09 -6.35939e-09 -6.92291e-09 -4.12732e-09 -9.49128e-09 -1.00744e-08 -1.88271e-09
          -1.34174e-09 -6.26313e-09 -3.58021e-08 -9.18724e-10 -6.75626e-08 -2.10838e-08 -8.16787e-09 -4.16811e-09 -3.78517e-09 -8.6867e-09 -1.07997e-08 -3.20874e-09
          -1.04568e-08 -8.29117e-09 -1.24508e-09 -1.40302e-09 -8.12438e-09 -3.13734e-08 -2.08924e-09 -5.43813e-08 -2.15084e-08 -1.13975e-08 -2.99179e-09 -3.34344e-09
          -8.20593e-09 -1.66193e-08 -2.39266e-09 -1.03494e-08 -6.7458e-09 -1.00167e-09 -1.45131e-09 -1.2321e-08 -2.3188e-08 -3.04674e-09 -4.28656e-08 -2.33843e-08
          -1.5634e-08 -2.71421e-09 -2.89685e-09 -5.52778e-09 -2.07436e-08 -1.91531e-09 -9.51886e-09 -5.44197e-09 -1.34028e-09 -1.28224e-09 -1.5641e-08 -1.55428e-08
          -3.16868e-09 -3.12358e-08 -2.38458e-08 -2.38466e-08 -2.79849e-09 -3.07309e-09 -6.46382e-09 -2.39252e-08 -2.11606e-09 -7.93738e-09 -3.75955e-09 -1.10486e-09
          -1.05766e-09 -1.68151e-08 -9.64371e-09 -3.01005e-09 -2.33851e-08 -1.76529e-08 -3.95228e-08 -2.83331e-09 -2.87417e-09 -7.92889e-09 -2.53588e-08 -2.6554e-09
          -6.22238e-09 -2.99892e-09 -1.28499e-09 -1.03428e-09 -1.62026e-08 -6.2794e-09 -2.95179e-09 -1.87905e-08 -8.75968e-09 -5.15817e-08 -3.11666e-09 -3.57077e-09
          -9.73384e-09 -2.67909e-08 -2.959e-09 -4.1094e-09 -2.03587e-09 -1.43013e-09 -1.17857e-09 -1.27991e-08 -5.53881e-09 -3.29353e-09 -1.789e-08 -5.54118e-09
          -5.40778e-08 -3.96686e-09 -5.42893e-09 -1.09057e-08 -2.86723e-08 -4.19171e-09 -2.02055e-09 -1.09606e-09 -1.01042e-09 -1.08643e-09 -7.40261e-09 -5.07698e-09
          -3.55555e-09 -1.91198e-08 -5.35861e-09 -4.83817e-08 -6.57718e-09 -9.38694e-09 -1.50931e-08 -3.03634e-08 -5.28956e-09 -6.26772e-10 -4.6588e-10 -3.46324e-10
          -3.4772e-10 -2.04726e-09 -2.18405e-09 -1.78127e-09 -1.10517e-08 -5.54192e-09 -2.81238e-08 -1.20445e-08 -1.05594e-08 -1.20617e-08 -1.68736e-08 -2.83804e-09
        </DataArray>
        <DataArray type="Float32" Name="z[0]" NumberOfComponents="1" format="ascii">
          0.150578 0.150579 0.15058 0.150582 0.150582 0.150583 0.150584 0.150585 0.150585 0.150586 0.150587 0.150588
          0.150589 0.150591 0.150596 0.150581 0.150582 0.150583 0.150585 0.150586 0.150587 0.150587 0.150588 0.150588
          0.150589 0.15059 0.150591 0.150593 0.150595 0.150599 0.150584 0.150585 0.150587 0.150588 0.150589 0.15059
          0.15059 0.150591 0.150592 0.150593 0.150593 0.150595 0.150596 0.150598 0.150602 0.150588 0.150589 0.15059
          0.150591 0.150592 0.150595 0.151522 0.155739 0.150595 0.150596 0.150597 0.150598 0.150599 0.150601 0.150605
          0.150591 0.150592 0.150593 0.15062 0.166578 0.334146 0.38758 0.384746 0.150598 0.150599 0.1506 0.150601
          0.150602 0.150604 0.150609 0.150594 0.150595 0.150599 0.331149 0.418213 0.432973 0.405324 0.399073 0.150601
          0.150602 0.150603 0.150604 0.150605 0.150607 0.150612 0.150597 0.150598 0.151603 0.389994 0.437379 0.451986