<?xml version="1.0"?>
<VTKFile type="UnstructuredGrid" version="0.1" byte_order="LittleEndian">
  <UnstructuredGrid>
    <Piece NumberOfCells="360" NumberOfPoints="800">
      <CellData Scalars="pressure[0]">
        <DataArray type="Float32" Name="pressure[0]" NumberOfComponents="1" format="ascii">
          2.09831e+07 2.09977e+07 2.14916e+07 2.20087e+07 2.2369e+07 2.27955e+07 2.29342e+07 2.29849e+07 2.3047e+07 2.31166e+07 2.3329e+07 2.368e+07
          2.39408e+07 2.45976e+07 2.53568e+07 2.10271e+07 2.10417e+07 2.15881e+07 2.21288e+07 2.25257e+07 2.297e+07 2.3073e+07 2.31128e+07 2.31776e+07
          2.32583e+07 2.35592e+07 2.39165e+07 2.41248e+07 2.47931e+07 2.55238e+07 2.10712e+07 2.10858e+07 2.16549e+07 2.22675e+07 2.26135e+07 2.30267e+07
          2.31518e+07 2.32117e+07 2.32992e+07 2.34151e+07 2.38291e+07 2.42414e+07 2.44385e+07 2.50428e+07 2.57362e+07 2.11158e+07 2.1131e+07 2.15146e+07
          2.23997e+07 2.27261e+07 2.31113e+07 2.32237e+07 2.32779e+07 2.34238e+07 2.36218e+07 2.41836e+07 2.4643e+07 2.4824e+07 2.53413e+07 2.60014e+07
          2.12121e+07 2.12359e+07 1.97831e+07 2.2499e+07 2.28979e+07 2.32903e+07 2.33599e+07 2.33982e+07 2.36601e+07 2.40682e+07 2.46083e+07 2.50236e+07
          2.52054e+07 2.56783e+07 2.62618e+07 2.14099e+07 2.14528e+07 2.19728e+07 2.2969e+07 2.32488e+07 2.35683e+07 2.36615e+07 2.37343e+07 2.40632e+07
          2.45755e+07 2.50983e+07 2.53657e+07 2.55603e+07 2.60181e+07 2.65537e+07 2.16634e+07 2.17133e+07 2.26116e+07 2.34683e+07 2.36829e+07 2.41935e+07
          2.42761e+07 2.43609e+07 2.457e+07 2.51116e+07 2.55576e+07 2.56671e+07 2.58517e+07 2.63853e+07 2.69602e+07 2.20277e+07 2.20819e+07 2.31687e+07
          2.39906e+07 2.42278e+07 2.4758e+07 2.48265e+07 2.48955e+07 2.50934e+07 2.55465e+07 2.58564e+07 2.59366e+07 2.61838e+07 2.67632e+07 2.75219e+07
          2.25579e+07 2.26223e+07 2.36543e+07 2.45174e+07 2.48191e+07 2.52415e+07 2.53781e+07 2.5515e+07 2.56916e+07 2.60038e+07 2.61652e+07 2.61961e+07
          2.64505e+07 2.7189e+07 2.8082e+07 2.32005e+07 2.33082e+07 2.3987e+07 2.47431e+07 2.53256e+07 2.56676e+07 2.59612e+07 2.62422e+07 2.63403e+07
          2.6468e+07 2.65408e+07 2.65689e+07 2.68355e+07 2.76161e+07 2.84145e+07 2.41351e+07 2.42755e+07 2.4577e+07 2.51765e+07 2.5719e+07 2.5985e+07
          2.64369e+07 2.68405e+07 2.69234e+07 2.69243e+07 2.69251e+07 2.69614e+07 2.71833e+07 2.79652e+07 2.86602e+07 2.47934e+07 2.48735e+07 2.50373e+07
          2.54578e+07 2.61425e+07 2.63041e+07 2.69152e+07 2.74082e+07 2.74328e+07 2.73738e+07 2.73273e+07 2.73445e+07 2.75601e+07 2.8314e+07 2.93757e+07
          2.52535e+07 2.53203e+07 2.54537e+07 2.5782e+07 2.67619e+07 2.68759e+07 2.75106e+07 2.80577e+07 2.81447e+07 2.78999e+07 2.7836e+07 2.8227e+07
          2.88571e+07 2.98666e+07 3.01113e+07 2.6225e+07 2.62728e+07 2.61801e+07 2.65228e+07 2.77074e+07 2.78131e+07 2.83246e+07 2.87243e+07 2.8793e+07
          2.88493e+07 2.88715e+07 2.94281e+07 3.0192e+07 3.07769e+07 3.05453e+07 2.70383e+07 2.70384e+07 2.71059e+07 2.80865e+07 2.86177e+07 2.86821e+07
          2.90144e+07 2.92553e+07 2.93074e+07 2.93885e+07 2.95468e+07 3.0385e+07 3.1038e+07 3.12218e+07 3.1065e+07 2.77484e+07 2.77744e+07 2.79274e+07
          2.89091e+07 2.91513e+07 2.92061e+07 2.94401e+07 2.95933e+07 2.96438e+07 2.9721e+07 3.00341e+07 3.08219e+07 3.14076e+07 3.17318e+07 3.15561e+07
          2.84661e+07 2.85115e+07 2.86514e+07 2.94295e+07 2.95763e+07 2.96145e+07 2.97321e+07 2.9836e+07 2.98847e+07 2.99495e+07 3.03678e+07 3.13003e+07
          3.19263e+07 3.22403e+07 3.20063e+07 2.90473e+07 2.91056e+07 2.94511e+07 2.97389e+07 2.98669e+07 2.99108e+07 3.00022e+07 3.00794e+07 3.01302e+07
          3.0189e+07 3.0703e+07 3.16856e+07 3.23235e+07 3.25792e+07 3.24556e+07 2.93595e+07 2.94252e+07 2.96393e+07 2.99551e+07 3.01195e+07 3.01669e+07
          3.0247e+07 3.03152e+07 3.03615e+07 3.04179e+07 3.09824e+07 3.20666e+07 3.27187e+07 3.29084e+07 3.30795e+07 2.96102e+07 2.96687e+07 2.9864e+07
          3.01788e+07 3.03403e+07 3.03884e+07 3.04662e+07 3.05308e+07 3.05775e+07 3.06406e+07 3.11991e+07 3.23925e+07 3.31084e+07 3.32559e+07 3.36733e+07
          2.98211e+07 2.98876e+07 3.0044e+07 3.0336e+07 3.05367e+07 3.059e+07 3.06743e+07 3.07432e+07 3.08067e+07 3.08873e+07 3.16773e+07 3.29526e+07
          3.34696e+07 3.36256e+07 3.41367e+07 3.00232e+07 3.00923e+07 3.0232e+07 3.05181e+07 3.0723e+07 3.07821e+07 3.08808e+07 3.09604e+07 3.10438e+07
          3.11371e+07 3.22033e+07 3.3527e+07 3.3844e+07 3.40352e+07 3.45883e+07 3.02074e+07 3.02706e+07 3.04392e+07 3.07414e+07 3.09094e+07 3.09778e+07
          3.10948e+07 3.11879e+07 3.12967e+07 3.1414e+07 3.26482e+07 3.40001e+07 3.42708e+07 3.44857e+07 3.49117e+07 3.03757e+07 3.04358e+07 3.0584e+07
          3.08879e+07 3.11039e+07 3.11741e+07 3.13064e+07 3.14153e+07 3.15491e+07 3.17085e+07 3.31401e+07 3.4411e+07 3.47116e+07 3.49054e+07 3.51975e+07
        </DataArray>
        <DataArray type="Float32" Name="pressure[1]" NumberOfComponents="1" format="ascii">
          2.09831e+07 2.09977e+07 2.14916e+07 2.20087e+07 2.2369e+07 2.27955e+07 2.29342e+07 2.29849e+07 2.3047e+07 2.31166e+07 2.3329e+07 2.368e+07
          2.39408e+07 2.45976e+07 2.53568e+07 2.10271e+07 2.10417e+07 2.15881e+07 2.21288e+07 2.25257e+07 2.297e+07 2.3073e+07 2.31128e+07 2.31776e+07
          2.32583e+07 2.35592e+07 2.39165e+07 2.41248e+07 2.47931e+07 2.55238e+07 2.10712e+07 2.10858e+07 2.16549e+07 2.22675e+07 2.26135e+07 2.30267e+07
          2.31518e+07 2.32117e+07 2.32992e+07 2.34151e+07 2.38291e+07 2.42414e+07 2.44385e+07 2.50428e+07 2.57362e+07 2.11158e+07 2.1131e+07 2.15146e+07
          2.23997e+07 2.27261e+07 2.31113e+07 2.32237e+07 2.32779e+07 2.34238e+07 2.36218e+07 2.41836e+07 2.4643e+07 2.4824e+07 2.53413e+07 2.60014e+07
          2.12121e+07 2.12359e+07 1.97831e+07 2.2499e+07 2.28979e+07 2.32903e+07 2.33599e+07 2.33982e+07 2.36601e+07 2.40682e+07 2.46083e+07 2.50236e+07
          2.52054e+07 2.56783e+07 2.62618e+07 2.14099e+07 2.14528e+07 2.19728e+07 2.2969e+07 2.32488e+07 2.35683e+07 2.36615e+07 2.37343e+07 2.40632e+07
          2.45755e+07 2.50983e+07 2.53657e+07 2.55603e+07 2.60181e+07 2.65537e+07 2.16634e+07 2.17133e+07 2.26116e+07 2.34683e+07 2.36829e+07 2.41935e+07
          2.42761e+07 2.43609e+07 2.457e+07 2.51116e+07 2.55576e+07 2.56671e+07 2.58517e+07 2.63853e+07 2.69602e+07 2.20277e+07 2.20819e+07 2.31687e+07
          2.39906e+07 2.42278e+07 2.4758e+07 2.48265e+07 2.48955e+07 2.50934e+07 2.55465e+07 2.58564e+07 2.59366e+07 2.61838e+07 2.67632e+07 2.75219e+07
          2.25579e+07 2.26223e+07 2.36543e+07 2.45174e+07 2.48191e+07 2.52415e+07 2.53781e+07 2.5515e+07 2.56916e+07 2.60038e+07 2.61652e+07 2.61961e+07
          2.64505e+07 2.7189e+07 2.8082e+07 2.32005e+07 2.33082e+07 2.3987e+07 2.47431e+07 2.53256e+07 2.56676e+07 2.59612e+07 2.62422e+07 2.63403e+07
          2.6468e+07 2.65408e+07 2.65689e+07 2.68355e+07 2.76161e+07 2.84145e+07 2.41351e+07 2.42755e+07 2.4577e+07 2.51765e+07 2.5719e+07 2.5985e+07
          2.64369e+07 2.68405e+07 2.69234e+07 2.69243e+07 2.69251e+07 2.69614e+07 2.71833e+07 2.79652e+07 2.86602e+07 2.47934e+07 2.48735e+07 2.50373e+07
          2.54578e+07 2.61425e+07 2.63041e+07 2.69152e+07 2.74082e+07 2.74328e+07 2.73738e+07 2.73273e+07 2.73445e+07 2.75601e+07 2.8314e+07 2.93757e+07
          2.52535e+07 2.53203e+07 2.54537e+07 2.5782e+07 2.67619e+07 2.68759e+07 2.75106e+07 2.80577e+07 2.81447e+07 2.78999e+07 2.7836e+07 2.8227e+07
          2.88571e+07 2.98666e+07 3.01113e+07 2.6225e+07 2.62728e+07 2.61801e+07 2.65228e+07 2.77074e+07 2.78131e+07 2.83246e+07 2.87243e+07 2.8793e+07
          2.88493e+07 2.88715e+07 2.94281e+07 3.0192e+07 3.07769e+07 3.05453e+07 2.70383e+07 2.70384e+07 2.71059e+07 2.80865e+07 2.86177e+07 2.86821e+07
          2.90144e+07 2.92553e+07 2.93074e+07 2.93885e+07 2.95468e+07 3.0385e+07 3.1038e+07 3.12218e+07 3.1065e+07 2.77484e+07 2.77744e+07 2.79274e+07
          2.89091e+07 2.91513e+07 2.92061e+07 2.94401e+07 2.95933e+07 2.96438e+07 2.9721e+07 3.00341e+07 3.08219e+07 3.14076e+07 3.17318e+07 3.15561e+07
          2.84661e+07 2.85115e+07 2.86514e+07 2.94295e+07 2.95763e+07 2.96145e+07 2.97321e+07 2.9836e+07 2.98847e+07 2.99495e+07 3.03678e+07 3.13003e+07
          3.19263e+07 3.22403e+07 3.20063e+07 2.90473e+07 2.91056e+07 2.94511e+07 2.97389e+07 2.98669e+07 2.99108e+07 3.00022e+07 3.00794e+07 3.01302e+07
          3.0189e+07 3.0703e+07 3.16856e+07 3.23235e+07 3.25792e+07 3.24556e+07 2.93595e+07 2.94252e+07 2.96393e+07 2.99551e+07 3.01195e+07 3.01669e+07
          3.0247e+07 3.03152e+07 3.03615e+07 3.04179e+07 3.09824e+07 3.20666e+07 3.27187e+07 3.29084e+07 3.30795e+07 2.96102e+07 2.96687e+07 2.9864e+07
          3.01788e+07 3.03403e+07 3.03884e+07 3.04662e+07 3.05308e+07 3.05775e+07 3.06406e+07 3.11991e+07 3.23925e+07 3.31084e+07 3.32559e+07 3.36733e+07
          2.98211e+07 2.98876e+07 3.0044e+07 3.0336e+07 3.05367e+07 3.059e+07 3.06743e+07 3.07432e+07 3.08067e+07 3.08873e+07 3.16773e+07 3.29526e+07
          3.34696e+07 3.36256e+07 3.41367e+07 3.00232e+07 3.00923e+07 3.0232e+07 3.05181e+07 3.0723e+07 3.07821e+07 3.08808e+07 3.09604e+07 3.10438e+07
          3.11371e+07 3.22033e+07 3.3527e+07 3.3844e+07 3.40352e+07 3.45883e+07 3.02074e+07 3.02706e+07 3.04392e+07 3.07414e+07 3.09094e+07 3.09778e+07
          3.10948e+07 3.11879e+07 3.12967e+07 3.1414e+07 3.26482e+07 3.40001e+07 3.42708e+07 3.44857e+07 3.49117e+07 3.03757e+07 3.04358e+07 3.0584e+07
          3.08879e+07 3.11039e+07 3.11741e+07 3.13064e+07 3.14153e+07 3.15491e+07 3.17085e+07 3.31401e+07 3.4411e+07 3.47116e+07 3.49054e+07 3.51975e+07
        </DataArray>
        <DataArray type="Float32" Name="pressure[2]" NumberOfComponents="1" format="ascii">
          2.09831e+07 2.09977e+07 2.14916e+07 2.20087e+07 2.2369e+07 2.27955e+07 2.29342e+07 2.29849e+07 2.3047e+07 2.31166e+07 2.3329e+07 2.368e+07
          2.39408e+07 2.45976e+07 2.53568e+07 2.10271e+07 2.10417e+07 2.15881e+07 2.21288e+07 2.25257e+07 2.297e+07 2.3073e+07 2.31128e+07 2.31776e+07
          2.32583e+07 2.35592e+07 2.39165e+07 2.41248e+07 2.47931e+07 2.55238e+07 2.10712e+07 2.10858e+07 2.16549e+07 2.22675e+07 2.26135e+07 2.30267e+07
          2.31518e+07 2.32117e+07 2.32992e+07 2.34151e+07 2.38291e+07 2.42414e+07 2.44385e+07 2.50428e+07 2.57362e+07 2.11158e+07 2.1131e+07 2.15146e+07
          2.23997e+07 2.27261e+07 2.31113e+07 2.32237e+07 2.32779e+07 2.34238e+07 2.36218e+07 2.41836e+07 2.4643e+07 2.4824e+07 2.53413e+07 2.60014e+07
          2.12121e+07 2.12359e+07 1.97831e+07 2.2499e+07 2.28979e+07 2.32903e+07 2.33599e+07 2.33982e+07 2.36601e+07 2.40682e+07 2.46083e+07 2.50236e+07
          2.52054e+07 2.56783e+07 2.62618e+07 2.14099e+07 2.14528e+07 2.19728e+07 2.2969e+07 2.32488e+07 2.35683e+07 2.36615e+07 2.37343e+07 2.40632e+07
          2.45755e+07 2.50983e+07 2.53657e+07 2.55603e+07 2.60181e+07 2.65537e+07 2.16634e+07 2.17133e+07 2.26116e+07 2.34683e+07 2.36829e+07 2.41935e+07
          2.42761e+07 2.43609e+07 2.457e+07 2.51116e+07 2.55576e+07 2.56671e+07 2.58517e+07 2.63853e+07 2.69602e+07 2.20277e+07 2.20819e+07 2.31687e+07
          2.39906e+07 2.42278e+07 2.4758e+07 2.48265e+07 2.48955e+07 2.50934e+07 2.55465e+07 2.58564e+07 2.59366e+07 2.61838e+07 2.67632e+07 2.75219e+07
          2.25579e+07 2.26223e+07 2.36543e+07 2.45174e+07 2.48191e+07 2.52415e+07 2.53781e+07 2.5515e+07 2.56916e+07 2.60038e+07 2.61652e+07 2.61961e+07
          2.64505e+07 2.7189e+07 2.8082e+07 2.32005e+07 2.33082e+07 2.3987e+07 2.47431e+07 2.53256e+07 2.56676e+07 2.59612e+07 2.62422e+07 2.63403e+07
          2.6468e+07 2.65408e+07 2.65689e+07 2.68355e+07 2.76161e+07 2.84145e+07 2.41351e+07 2.42755e+07 2.4577e+07 2.51765e+07 2.5719e+07 2.5985e+07
          2.64369e+07 2.68405e+07 2.69234e+07 2.69243e+07 2.69251e+07 2.69614e+07 2.71833e+07 2.79652e+07 2.86602e+07 2.47934e+07 2.48735e+07 2.50373e+07
          2.54578e+07 2.61425e+07 2.63041e+07 2.69152e+07 2.74082e+07 2.74328e+07 2.73738e+07 2.73273e+07 2.73445e+07 2.75601e+07 2.8314e+07 2.93757e+07
          2.52535e+07 2.53203e+07 2.54537e+07 2.5782e+07 2.67619e+07 2.68759e+07 2.75106e+07 2.80577e+07 2.81447e+07 2.78999e+07 2.7836e+07 2.8227e+07
          2.88571e+07 2.98666e+07 3.01113e+07 2.6225e+07 2.62728e+07 2.61801e+07 2.65228e+07 2.77074e+07 2.78131e+07 2.83246e+07 2.87243e+07 2.8793e+07
          2.88493e+07 2.88715e+07 2.94281e+07 3.0192e+07 3.07769e+07 3.05453e+07 2.70383e+07 2.70384e+07 2.71059e+07 2.80865e+07 2.86177e+07 2.86821e+07
          2.90144e+07 2.92553e+07 2.93074e+07 2.93885e+07 2.95468e+07 3.0385e+07 3.1038e+07 3.12218e+07 3.1065e+07 2.77484e+07 2.77744e+07 2.79274e+07
          2.89091e+07 2.91513e+07 2.92061e+07 2.94401e+07 2.95933e+07 2.96438e+07 2.9721e+07 3.00341e+07 3.08219e+07 3.14076e+07 3.17318e+07 3.15561e+07
          2.84661e+07 2.85115e+07 2.86514e+07 2.94295e+07 2.95763e+07 2.96145e+07 2.97321e+07 2.9836e+07 2.98847e+07 2.99495e+07 3.03678e+07 3.13003e+07
          3.19263e+07 3.22403e+07 3.20063e+07 2.90473e+07 2.91056e+07 2.94511e+07 2.97389e+07 2.98669e+07 2.99108e+07 3.00022e+07 3.00794e+07 3.01302e+07
          3.0189e+07 3.0703e+07 3.16856e+07 3.23235e+07 3.25792e+07 3.24556e+07 2.93595e+07 2.94252e+07 2.96393e+07 2.99551e+07 3.01195e+07 3.01669e+07
          3.0247e+07 3.03152e+07 3.03615e+07 3.04179e+07 3.09824e+07 3.20666e+07 3.27187e+07 3.29084e+07 3.30795e+07 2.96102e+07 2.96687e+07 2.9864e+07
          3.01788e+07 3.03403e+07 3.03884e+07 3.04662e+07 3.05308e+07 3.05775e+07 3.06406e+07 3.11991e+07 3.23925e+07 3.31084e+07 3.32559e+07 3.36733e+07
          2.98211e+07 2.98876e+07 3.0044e+07 3.0336e+07 3.05367e+07 3.059e+07 3.06743e+07 3.07432e+07 3.08067e+07 3.08873e+07 3.16773e+07 3.29526e+07
          3.34696e+07 3.36256e+07 3.41367e+07 3.00232e+07 3.00923e+07 3.0232e+07 3.05181e+07 3.0723e+07 3.07821e+07 3.08808e+07 3.09604e+07 3.10438e+07
          3.11371e+07 3.22033e+07 3.3527e+07 3.3844e+07 3.40352e+07 3.45883e+07 3.02074e+07 3.02706e+07 3.04392e+07 3.07414e+07 3.09094e+07 3.09778e+07
          3.10948e+07 3.11879e+07 3.12967e+07 3.1414e+07 3.26482e+07 3.40001e+07 3.42708e+07 3.44857e+07 3.49117e+07 3.03757e+07 3.04358e+07 3.0584e+07
          3.08879e+07 3.11039e+07 3.11741e+07 3.13064e+07 3.14153e+07 3.15491e+07 3.17085e+07 3.31401e+07 3.4411e+07 3.47116e+07 3.49054e+07 3.51975e+07
        </DataArray>
        <DataArray type="Float32" Name="velocity[0]" NumberOfComponents="1" format="ascii">
          8.91952e-13 2.94803e-08 2.84954e-10 1.39531e-09 -1.6894e-10 -1.1372e-09 3.14671e-10 1.7282e-09 2.75868e-09 -1.55787e-10 -1.95205e-09 -2.83761e-09
          -1.9558e-09 -5.9749e-10 -2.71077e-09 -1.19462e-09 8.51055e-08 6.27561e-10 -2.36651e-09 2.91308e-10 2.35583e-09 1.00932e-08 7.2242e-09 6.4605e-09
          -1.77444e-09 -4.05166e-09 -1.19568e-08 -7.38862e-09 -1.85492e-09 -7.19032e-09 -9.32572e-09 1.28354e-07 1.256e-09 2.16012e-08 9.13818e-10 6.8611e-09
          1.89457e-08 1.53007e-08 5.0886e-09 -5.2608e-09 -4.91272e-09 -2.99426e-08 -1.0462e-08 -3.97703e-09 -1.0767e-08 -2.02781e-08 1.55719e-07 6.48199e-09
          9.36215e-08 -5.3027e-10 -1.21083e-09 1.01592e-08 1.42351e-08 -1.88367e-09 -1.29286e-08 -6.53066e-09 -5.26751e-08 -7.45355e-09 -5.77856e-09 -1.46563e-08
          -9.39904e-08 -3.41204e-08 -2.15403e-10 -9.14014e-08 -1.11347e-08 -3.55057e-08 -1.97437e-08 -1.88454e-08 -7.51851e-09 -1.4126e-08 -9.3492e-09 -9.05276e-08
          -3.81507e-09 -5.28191e-09 -1.80139e-08 -1.72826e-07 -2.12811e-07 -7.04468e-09 -2.25636e-07 -2.82104e-08 -1.07934e-07 -5.30509e-08 -8.92708e-08 -9.04434e-09
          -7.21163e-09 -1.43787e-08 -1.3215e-07 -2.27755e-09 -4.20795e-09 -2.02342e-08 -1.74514e-07 -1.85709e-07 -2.52281e-09 -8.73726e-08 -3.95755e-08 -1.7422e-07
          -5.66403e-08 -1.67705e-07 -9.02301e-09 -3.74021e-09 -1.78032e-08 -1.59394e-07 -1.94652e-09 -4.10945e-09 -2.17495e-08 -1.59179e-07 -1.7171e-07 -2.87879e-09
          -2.8731e-08 -4.11019e-08 -2.00908e-07 -3.33851e-08 -2.41854e-07 -7.5097e-09 -2.84116e-09 -1.96569e-08 -1.75767e-07 -1.5957e-09 -4.17644e-09 -2.34589e-08
          -1.42732e-07 -1.55233e-07 -2.97071e-09 -7.99288e-09 -3.49062e-08 -2.14252e-07 -1.23045e-08 -3.14711e-07 -5.89027e-09 -3.09194e-09 -3.22548e-08 -1.67353e-07
          -1.52188e-09 -3.72515e-09 -2.57281e-08 -1.13096e-07 -1.39464e-07 -9.16786e-09 -2.00063e-09 -2.74107e-08 -2.21836e-07 -4.18254e-09 -3.87223e-07 -5.55527e-09
          -3.64652e-09 -5.44226e-08 -1.38672e-07 -2.35118e-09 -3.06957e-09 -2.79999e-08 -7.99847e-08 -1.24608e-07 -1.74733e-08 -1.68492e-09 -2.18219e-08 -2.30026e-07
          -1.43374e-09 -4.44864e-07 -9.98823e-09 -5.18428e-09 -6.99745e-08 -1.06489e-07 -5.27963e-09 -3.29586e-09 -3.00595e-08 -5.93499e-08 -1.08639e-07 -2.29428e-08
          -7.8206e-10 -1.70018e-08 -2.44669e-07 -1.19934e-09 -4.90307e-07 -1.97782e-08 -8.23601e-09 -7.71129e-08 -5.80759e-08 -1.3575e-08 -7.07821e-09 -3.1607e-08
          -4.45998e-08 -9.10143e-08 -3.05439e-08 -3.191e-09 -1.60271e-08 -2.36171e-07 -1.76505e-09 -5.25269e-07 -4.85938e-08 -1.07975e-08 -5.67705e-08 -1.80679e-08
          -2.8216e-08 -1.45247e-08 -3.22837e-08 -3.85823e-08 -8.51274e-08 -2.75478e-08 -5.32224e-09 -2.10433e-08 -2.17581e-07 -1.84085e-09 -5.12146e-07 -8.67658e-08
          -1.58661e-08 -2.51119e-08 -7.30582e-09 -3.44177e-08 -2.64291e-08 -3.09804e-08 -4.52283e-08 -7.87854e-08 -1.66957e-08 -4.13601e-09 -2.77893e-08 -2.1472e-07
          -1.31474e-09 -4.70033e-07 -1.05135e-07 -2.42453e-08 -1.51166e-08 -3.87753e-09 -3.1494e-08 -4.13397e-08 -2.76447e-08 -5.4959e-08 -6.01412e-08 -1.13655e-08
          -3.49093e-09 -3.39861e-08 -2.1155e-07 -1.64428e-09 -4.00895e-07 -1.10167e-07 -3.34016e-08 -8.95446e-09 -5.14197e-09 -3.54953e-08 -6.0961e-08 -2.32431e-08
          -5.87635e-08 -4.55564e-08 -7.26948e-09 -4.89635e-09 -4.86487e-08 -1.8553e-07 -3.15785e-09 -3.17168e-07 -1.10962e-07 -5.18287e-08 -3.66169e-09 -5.03419e-09
          -2.92014e-08 -9.06835e-08 -1.84584e-08 -5.82276e-08 -3.62571e-08 -2.70405e-09 -3.70612e-09 -7.28171e-08 -1.34528e-07 -4.81623e-09 -2.41052e-07 -1.19281e-07
          -7.82681e-08 -2.58859e-09 -3.39521e-09 -1.89836e-08 -1.18695e-07 -1.44171e-08 -5.27618e-08 -2.60781e-08 -1.45154e-09 -1.39617e-09 -9.0441e-08 -8.59095e-08
          -5.07524e-09 -1.71221e-07 -1.18703e-07 -1.22281e-07 -1.50169e-09 -2.79547e-09 -2.48691e-08 -1.35831e-07 -1.26366e-08 -4.39593e-08 -1.76418e-08 -1.44579e-09
          -6.43924e-10 -9.6724e-08 -4.90411e-08 -4.24445e-09 -1.25143e-07 -7.65133e-08 -2.10738e-07 -2.61939e-09 -3.9845e-09 -3.69621e-08 -1.44211e-07 -1.36223e-08
          -3.36849e-08 -1.18937e-08 -1.30607e-09 -1.79658e-10 -9.0244e-08 -2.57271e-08 -3.64548e-09 -9.83237e-08 -3.19041e-08 -2.91412e-07 -4.10716e-09 -7.34562e-09
          -4.49211e-08 -1.50855e-07 -1.56771e-08 -2.12264e-08 -6.08392e-09 -2.03973e-09 -7.97812e-10 -6.68046e-08 -1.7508e-08 -3.55375e-09 -9.22945e-08 -1.72493e-08
          -3.07437e-07 -3.74054e-09 -1.40847e-08 -4.91879e-08 -1.57608e-07 -1.94783e-08 -9.9267e-09 -2.44119e-09 -9.21922e-10 -5.2999e-10 -3.33362e-08 -1.30439e-08
          -2.90674e-09 -9.68548e-08 -1.38585e-08 -2.6449e-07 -5.18561e-09 -2.42689e-08 -6.4648e-08 -1.64353e-07 -2.546e-08 -2.63375e-09 -5.51606e-10 1.97542e-10
          6.91921e-11 -7.84095e-09 -4.97123e-09 -1.06183e-09 -4.92419e-08 -6.44644e-09 -1.14264e-07 -3.42125e-09 -1.47229e-08 -3.86424e-08 -8.45081e-08 -1.43013e-08
        </DataArray>
        <DataArray type="Float32" Name="velocity[1]" NumberOfComponents="1" format="ascii">
          -1.3862e-28 4.81571e-24 7.50253e-26 2.16848e-25 2.62553e-26 0 -4.89036e-26 -2.40133e-25 2.97431e-26 5.74265e-24 -3.71513e-24 3.12918e-26
          2.42041e-24 -9.61014e-25 4.21015e-25 1.85935e-25 3.85894e-24 6.80561e-26 -8.0148e-25 -1.57999e-25 7.10629e-24 1.34738e-24 4.59001e-25 -6.74175e-24
          -1.48023e-25 0 -3.1923e-26 4.08139e-26 9.54799e-27 2.74888e-25 1.07773e-24 -6.24495e-24 -1.38453e-24 4.52634e-24 -1.70744e-25 0
          5.06642e-26 -7.11479e-25 -3.59784e-25 0 7.15758e-24 -1.12972e-23 0 1.12489e-24 -2.81472e-25 1.24246e-24 1.05528e-23 -1.3926e-24
          -8.68793e-24 3.44949e-25 8.81135e-24 -2.22326e-23 2.43383e-23 -4.31018e-24 1.19523e-24 3.6614e-24 -4.69766e-24 3.06178e-24 -1.29462e-24 9.70594e-25
          -1.35606e-25 -6.21961e-23 5.52526e-24 9.54328e-24 -2.853e-25 -4.30934e-24 1.53082e-26 -1.84312e-25 -2.48316e-25 -7.03373e-24 4.51051e-24 -8.36977e-24
          1.53658e-28 1.29557e-25 -1.49895e-24 -1.60403e-25 6.65481e-24 -5.48712e-25 5.80191e-24 4.24241e-25 -6.59001e-24 0 -7.77776e-26 4.38583e-26
          4.03653e-25 -5.08604e-25 6.19343e-24 -1.36275e-24 8.073e-25 1.49868e-24 -1.00112e-24 1.16236e-24 0 7.24277e-24 6.28858e-25 -9.72969e-24
          9.25896e-26 -4.82178e-26 -2.91574e-24 -8.20311e-27 6.95802e-28 1.85141e-28 2.64411e-26 4.39875e-29 -1.64569e-24 -1.78576e-25 1.25929e-23 1.27102e-24
          4.31813e-24 -4.36544e-26 1.40112e-23 2.1973e-26 1.32128e-25 2.79906e-25 -1.51911e-26 -3.28044e-24 -1.31024e-23 2.96274e-28 -3.42638e-25 1.91135e-24
          -1.50607e-24 -8.91279e-24 -7.04124e-27 -1.36287e-24 -7.08138e-25 3.5051e-24 0 0 -1.84385e-25 -8.51251e-28 6.74152e-25 3.83647e-24
          4.31421e-28 5.89484e-26 2.8255e-29 -1.04257e-23 1.55071e-24 1.76394e-24 -7.15449e-26 -3.22821e-24 3.57693e-24 -6.61589e-24 5.92126e-24 2.5578e-25
          -6.29115e-26 -2.03711e-25 3.46988e-24 -7.79036e-25 0 -2.08709e-24 3.74629e-24 1.73558e-25 2.86845e-25 -2.10428e-25 2.29377e-24 -8.63576e-28
          -4.16972e-24 6.08518e-24 6.34367e-25 1.75068e-25 -2.67712e-25 8.05442e-24 1.70286e-24 -2.8612e-25 1.4306e-25 -3.94382e-24 2.92382e-24 -5.46756e-25
          -5.10681e-26 -2.35183e-24 -1.95694e-23 3.23361e-26 4.02672e-24 -3.44574e-24 -2.98931e-25 1.57791e-24 2.95232e-24 -1.7646e-24 1.00052e-24 -9.78402e-26
          3.00838e-24 7.74892e-24 0 -3.595e-25 2.32084e-25 2.44063e-24 5.76087e-26 1.4154e-24 -3.59279e-24 2.88498e-27 -2.62009e-24 -8.25748e-25
          1.38128e-24 -8.04739e-25 8.01123e-29 2.11235e-26 2.35101e-27 7.93489e-25 5.98972e-26 7.70149e-28 1.62668e-23 -4.30307e-26 -3.44983e-24 5.81308e-24
          -3.61114e-25 2.62078e-24 2.22764e-24 -4.42432e-24 -1.37332e-28 -2.3027e-24 -3.00903e-24 -5.38515e-24 -4.26229e-28 3.99429e-25 4.99807e-25 3.60719e-28
          -3.79618e-26 -7.65076e-24 2.02504e-24 0 0 3.09663e-25 3.67456e-24 -4.98188e-25 4.29626e-24 0 1.44172e-24 0
          -2.99175e-25 4.63457e-25 5.06162e-28 8.91766e-26 -7.64946e-24 -4.81682e-29 -4.98153e-28 -5.06591e-28 4.0237e-24 -1.15827e-27 -1.1846e-24 -1.99402e-24
          9.46294e-28 8.24261e-25 8.94742e-28 -1.62971e-25 1.81554e-24 -9.83466e-24 0 -1.01375e-23 0 9.6456e-28 2.94863e-24 -3.64925e-24
          -1.63617e-24 4.6649e-28 1.25035e-24 0 3.12753e-24 0 4.62084e-25 1.61033e-24 4.76079e-24 1.11313e-25 -6.46669e-24 -5.49348e-24
          -2.0544e-24 1.74413e-25 4.95932e-26 -7.41751e-29 -1.66803e-24 -9.90243e-25 3.76219e-24 -1.86391e-24 2.04606e-24 -1.68477e-24 7.98466e-25 8.26172e-24
          -7.10771e-26 -4.38506e-24 9.9862e-24 5.22605e-24 -3.14281e-24 6.83184e-26 8.66616e-25 -6.19199e-28 9.73628e-25 -6.93875e-29 -3.39212e-24 7.33269e-25
          -1.5561e-24 3.5603e-25 -2.55848e-24 -1.15794e-25 -5.55092e-24 -5.03299e-24 8.96585e-24 2.55795e-25 3.35927e-24 1.01236e-24 -3.40538e-25 -8.03814e-25
          -9.04168e-25 5.4473e-25 0 -3.3523e-26 -1.18509e-24 4.10577e-24 -7.22003e-24 7.22075e-24 -5.35698e-24 2.71265e-27 0 0
          2.24736e-25 -8.96612e-28 1.29296e-24 -1.03202e-24 -1.08257e-24 1.00059e-24 -1.68108e-24 -9.40021e-25 -1.25438e-24 2.01321e-26 4.55905e-25 -3.48725e-24
          1.26736e-23 -2.4116e-25 -6.10348e-24 4.38006e-25 8.83743e-25 -1.61913e-28 -7.23993e-25 -5.58048e-29 -8.36856e-29 1.03283e-25 -2.74398e-24 4.82209e-25
          -1.21699e-25 9.5145e-24 -3.96628e-24 0 -2.575e-25 -8.04115e-25 6.21992e-24 -7.25433e-25 0 -4.09418e-25 -6.1464e-29 -3.33911e-25
          5.67868e-25 -1.21825e-24 -2.00202e-24 -3.31157e-25 -2.63142e-24 1.00185e-24 -2.7692e-23 0 2.76787e-23 -2.02688e-23 1.67211e-23 4.20853e-25
        </DataArray>
        <DataArray type="Float32" Name="velocity[2]" NumberOfComponents="1" format="ascii">
          -5.74892e-12 3.78786e-09 -2.74181e-09 -2.56448e-09 -2.84233e-09 -2.91088e-09 -2.58695e-09 -2.37959e-09 -2.39312e-09 -3.03858e-09 -3.18952e-09 -3.02003e-09
          -2.53072e-09 -2.02671e-09 -1.38217e-09 -1.36908e-10 1.39129e-08 -2.19194e-09 -2.4037e-09 -1.66469e-09 -1.51599e-09 -5.99401e-10 -1.44566e-09 -1.72162e-09
          -3.14241e-09 -3.43901e-09 -4.41633e-09 -2.97228e-09 -1.62697e-09 -1.85772e-09 -1.18589e-09 2.27055e-08 -5.76895e-10 1.55943e-09 -3.48353e-09 -2.38252e-09
          -2.05206e-10 -9.31752e-10 -2.68983e-09 -4.25822e-09 -4.02597e-09 -7.65553e-09 -3.51413e-09 -2.14565e-09 -2.50176e-09 -3.30991e-09 2.74737e-08 2.80335e-10
          1.3148e-08 -5.46121e-09 -5.08093e-09 -2.46475e-09 -1.36703e-09 -3.75934e-09 -5.16022e-09 -3.70595e-09 -1.11002e-08 -2.63949e-09 -2.46541e-09 -3.27809e-09
          -1.18692e-08 -2.00308e-10 -8.95628e-10 -2.31263e-08 -1.1505e-08 -1.40028e-08 -9.37963e-09 -7.86875e-09 -5.02372e-09 -6.26373e-09 -5.45075e-09 -1.80205e-08
          -1.17735e-09 -1.64392e-09 -3.60218e-09 -2.97968e-08 -3.7194e-08 -2.28673e-09 -4.57589e-08 -1.49547e-08 -2.63807e-08 -1.43823e-08 -1.93606e-08 -4.05351e-09
          -3.82626e-09 -4.99414e-09 -2.46735e-08 -9.18547e-10 -1.33239e-09 -3.88298e-09 -3.12021e-08 -3.38008e-08 -1.66489e-09 -1.87757e-08 -1.23099e-08 -3.49037e-08
          -1.34668e-08 -3.23195e-08 -3.43344e-09 -2.59969e-09 -5.10243e-09 -2.93036e-08 -7.82438e-10 -1.1293e-09 -4.02589e-09 -2.85175e-08 -3.14945e-08 -1.98381e-09
          -7.16992e-09 -1.01254e-08 -3.81166e-08 -8.71177e-09 -4.48804e-08 -2.60948e-09 -1.83638e-09 -4.70011e-09 -3.18943e-08 -9.81276e-10 -1.48347e-09 -4.51615e-09
          -2.56595e-08 -2.86725e-08 -2.138e-09 -3.34394e-09 -8.65623e-09 -4.0187e-08 -4.40745e-09 -5.69473e-08 -1.61467e-09 -1.15689e-09 -5.59279e-09 -2.94511e-08
          -9.25579e-10 -1.3473e-09 -4.91272e-09 -2.12664e-08 -2.75009e-08 -4.18515e-09 -2.27486e-09 -6.87966e-09 -4.1298e-08 -2.94593e-09 -6.95347e-08 -1.19798e-09
          -8.25228e-10 -9.05865e-09 -2.41911e-08 -1.1082e-09 -1.25581e-09 -5.31768e-09 -1.48583e-08 -2.37881e-08 -5.00519e-09 -2.0731e-09 -5.80042e-09 -4.22915e-08
          -1.64711e-09 -7.93288e-08 -1.8784e-09 -7.41025e-10 -1.18396e-08 -1.89479e-08 -1.88212e-09 -1.27862e-09 -5.60734e-09 -1.09867e-08 -2.06697e-08 -5.71953e-09
          -1.49416e-09 -4.47909e-09 -4.44225e-08 -1.15026e-09 -8.67e-08 -2.6976e-09 -2.43746e-10 -1.21407e-08 -1.05664e-08 -4.28999e-09 -2.21444e-09 -5.78321e-09
          -8.28361e-09 -1.7338e-08 -6.78223e-09 -1.49764e-09 -3.56435e-09 -4.3035e-08 -2.42303e-09 -9.44822e-08 -8.79857e-09 -7.21963e-10 -1.02629e-08 -5.34404e-09
          -6.98666e-09 -3.28459e-09 -5.70555e-09 -6.79221e-09 -1.48362e-08 -5.13526e-09 -1.82726e-09 -4.41878e-09 -3.90164e-08 -1.1253e-09 -9.16917e-08 -1.63858e-08
          -2.8058e-09 -4.80453e-09 -2.41041e-09 -7.56909e-09 -5.05058e-09 -5.01309e-09 -7.54142e-09 -1.34903e-08 -3.34317e-09 -1.51522e-09 -5.56547e-09 -3.83535e-08
          -7.26923e-10 -8.39152e-08 -1.99036e-08 -5.28317e-09 -3.60287e-09 -1.71491e-09 -6.60645e-09 -7.16187e-09 -4.21327e-09 -9.47528e-09 -1.06363e-08 -2.62387e-09
          -1.34276e-09 -6.54329e-09 -3.78451e-08 -9.66971e-10 -7.26654e-08 -2.26099e-08 -8.76217e-09 -4.54555e-09 -4.09365e-09 -9.07929e-09 -1.1212e-08 -3.29303e-09
          -1.03226e-08 -8.21963e-09 -1.96324e-09 -1.72228e-09 -8.76206e-09 -3.33395e-08 -2.21993e-09 -5.84858e-08 -2.31004e-08 -1.22031e-08 -3.21603e-09 -3.57898e-09
          -8.63096e-09 -1.7293e-08 -2.46565e-09 -1.0342e-08 -6.74186e-09 -1.19139e-09 -1.64659e-09 -1.32745e-08 -2.48026e-08 -3.23605e-09 -4.5967e-08 -2.50586e-08
          -1.67436e-08 -2.90522e-09 -3.09251e-09 -5.83026e-09 -2.16033e-08 -1.98452e-09 -9.5916e-09 -5.4863e-09 -1.3969e-09 -1.33286e-09 -1.67641e-08 -1.66436e-08
          -3.35475e-09 -3.34168e-08 -2.54972e-08 -2.54845e-08 -2.98805e-09 -3.27575e-09 -6.82263e-09 -2.49486e-08 -2.19262e-09 -8.04709e-09 -3.81653e-09 -1.13125e-09
          -1.08253e-09 -1.79977e-08 -1.02967e-08 -3.17568e-09 -2.49803e-08 -1.88243e-08 -4.21284e-08 -3.01884e-09 -3.05763e-09 -8.34054e-09 -2.64878e-08 -2.76648e-09
          -6.32762e-09 -3.04823e-09 -1.31025e-09 -1.05455e-09 -1.73319e-08 -6.68224e-09 -3.11471e-09 -2.00547e-08 -9.31555e-09 -5.48883e-08 -3.31541e-09 -3.7923e-09
          -1.02179e-08 -2.80218e-08 -3.08518e-09 -4.18566e-09 -2.07352e-09 -1.45841e-09 -1.20225e-09 -1.3665e-08 -5.87952e-09 -3.47904e-09 -1.90452e-08 -5.87966e-09
          -5.74733e-08 -4.21326e-09 -5.75026e-09 -1.14512e-08 -3.00327e-08 -4.38119e-09 -2.06107e-09 -1.1187e-09 -1.0319e-09 -1.11049e-09 -7.87051e-09 -5.37875e-09
          -3.75701e-09 -2.03007e-08 -5.6802e-09 -5.13694e-08 -6.97741e-09 -9.9271e-09 -1.58937e-08 -3.18543e-08 -5.53718e-09 -6.40044e-10 -4.76121e-10 -3.54551e-10
          -3.56724e-10 -2.16645e-09 -2.31081e-09 -1.88195e-09 -1.17192e-08 -5.87295e-09 -2.98375e-08 -1.27708e-08 -1.11787e-08 -1.27313e-08 -1.77279e-08 -2.97312e-09
        </DataArray>
        <DataArray type="Float32" Name="z[0]" NumberOfComponents="1" format="ascii">
          0.150578 0.150579 0.15058 0.150582 0.150582 0.150583 0.150584 0.150585 0.150585 0.150586 0.150587 0.150588
          0.150589 0.150591 0.150596 0.150581 0.150582 0.150583 0.150585 0.150586 0.150587 0.150587 0.150588 0.150588
          0.150589 0.15059 0.150591 0.150593 0.150595 0.150599 0.150584 0.150585 0.150587 0.150588 0.150589 0.15059
          0.15059 0.150591 0.150592 0.150593 0.150593 0.150595 0.150596 0.150598 0.150602 0.150588 0.150589 0.15059
          0.150591 0.150592 0.150593 0.150594 0.150594 0.150595 0.150596 0.150597 0.150598 0.150599 0.150601 0.150605
          0.150591 0.150592 0.150593 0.150594 0.150595 0.150683 0.153566 0.202931 0.150598 0.150599 0.1506 0.150601
          0.150602 0.150604 0.150609 0.150594 0.150595 0.150596 0.150597 0.150978 0.360839 0.389937 0.391168 0.150601
          0.150602 0.150603 0.150604 0.150605 0.150607 0.150612 0.150597 0.150598 0.150599 0.15061 0.308086 0.418174