<?xml version="1.0"?>
<VTKFile type="UnstructuredGrid" version="0.1" byte_order="LittleEndian">
  <UnstructuredGrid>
    <Piece NumberOfCells="360" NumberOfPoints="800">
      <CellData Scalars="pressure[0]">
        <DataArray type="Float32" Name="pressure[0]" NumberOfComponents="1" format="ascii">
          2.0824e+07 2.08384e+07 2.13245e+07 2.18308e+07 2.22415e+07 2.27257e+07 2.28804e+07 2.29351e+07 2.3001e+07 2.30725e+07 2.32974e+07 2.36737e+07
          2.39533e+07 2.46252e+07 2.54065e+07 2.08676e+07 2.08821e+07 2.14156e+07 2.19257e+07 2.2391e+07 2.29089e+07 2.30243e+07 2.30665e+07 2.31355e+07
          2.32185e+07 2.35436e+07 2.39271e+07 2.41464e+07 2.48291e+07 2.55745e+07 2.09114e+07 2.09258e+07 2.14844e+07 2.2054e+07 2.24692e+07 2.29642e+07
          2.31082e+07 2.31736e+07 2.32686e+07 2.33885e+07 2.38385e+07 2.42851e+07 2.44824e+07 2.50928e+07 2.57894e+07 2.09557e+07 2.09705e+07 2.13591e+07
          2.21797e+07 2.25825e+07 2.30742e+07 2.32119e+07 2.32736e+07 2.3434e+07 2.36376e+07 2.42399e+07 2.47171e+07 2.48918e+07 2.54011e+07 2.60582e+07
          2.10448e+07 2.10709e+07 1.9768e+07 2.22564e+07 2.2666e+07 2.3365e+07 2.35186e+07 2.35789e+07 2.38097e+07 2.42019e+07 2.47188e+07 2.51261e+07
          2.52936e+07 2.57458e+07 2.63209e+07 2.12363e+07 2.12793e+07 2.16616e+07 2.28034e+07 2.34634e+07 2.40532e+07 2.41229e+07 2.41839e+07 2.44013e+07
          2.47941e+07 2.52426e+07 2.54809e+07 2.56618e+07 2.60934e+07 2.6615e+07 2.14787e+07 2.15276e+07 2.21854e+07 2.37397e+07 2.42585e+07 2.4707e+07
          2.47813e+07 2.48629e+07 2.49799e+07 2.53642e+07 2.56929e+07 2.57856e+07 2.596e+07 2.64661e+07 2.70242e+07 2.18238e+07 2.18776e+07 2.29765e+07
          2.4049e+07 2.48206e+07 2.52622e+07 2.53177e+07 2.53706e+07 2.54924e+07 2.57796e+07 2.59833e+07 2.60512e+07 2.62886e+07 2.68465e+07 2.7589e+07
          2.23202e+07 2.23827e+07 2.34199e+07 2.43552e+07 2.54323e+07 2.57541e+07 2.58589e+07 2.59609e+07 2.60374e+07 2.61872e+07 2.62761e+07 2.63026e+07
          2.65498e+07 2.72711e+07 2.81508e+07 2.2921e+07 2.30222e+07 2.36834e+07 2.43454e+07 2.59582e+07 2.61847e+07 2.64187e+07 2.66311e+07 2.65954e+07
          2.66025e+07 2.66251e+07 2.66528e+07 2.69157e+07 2.76959e+07 2.84837e+07 2.38008e+07 2.39449e+07 2.42942e+07 2.47571e+07 2.6329e+07 2.64995e+07
          2.6873e+07 2.71906e+07 2.70713e+07 2.70084e+07 2.6977e+07 2.70139e+07 2.72386e+07 2.80491e+07 2.87355e+07 2.446e+07 2.4574e+07 2.48609e+07
          2.52543e+07 2.66959e+07 2.68071e+07 2.73353e+07 2.77609e+07 2.78001e+07 2.73916e+07 2.73421e+07 2.73903e+07 2.76877e+07 2.84359e+07 2.95128e+07
          2.55747e+07 2.56116e+07 2.56262e+07 2.5978e+07 2.72185e+07 2.73304e+07 2.78973e+07 2.83909e+07 2.84894e+07 2.8446e+07 2.83708e+07 2.85833e+07
          2.91077e+07 3.00161e+07 3.02195e+07 2.65495e+07 2.65828e+07 2.64014e+07 2.67837e+07 2.80673e+07 2.81795e+07 2.86494e+07 2.90187e+07 2.90889e+07
          2.91657e+07 2.92242e+07 2.96984e+07 3.03574e+07 3.08857e+07 3.06504e+07 2.7316e+07 2.73125e+07 2.73446e+07 2.84217e+07 2.89148e+07 2.89779e+07
          2.92889e+07 2.95122e+07 2.95636e+07 2.96437e+07 2.97991e+07 3.05591e+07 3.11498e+07 3.13241e+07 3.11639e+07 2.79977e+07 2.80193e+07 2.81128e+07
          2.91751e+07 2.94134e+07 2.9468e+07 2.96873e+07 2.98312e+07 2.98805e+07 2.99547e+07 3.02486e+07 3.09754e+07 3.15157e+07 3.18235e+07 3.1648e+07
          2.87032e+07 2.8753e+07 2.91366e+07 2.96974e+07 2.98176e+07 2.98553e+07 2.9968e+07 3.00673e+07 3.01153e+07 3.01786e+07 3.05692e+07 3.14356e+07
          3.2019e+07 3.23197e+07 3.20908e+07 2.92723e+07 2.9332e+07 2.96996e+07 2.99766e+07 3.00983e+07 3.01422e+07 3.02303e+07 3.03045e+07 3.03545e+07
          3.04123e+07 3.0893e+07 3.18095e+07 3.24061e+07 3.26514e+07 3.25314e+07 2.9584e+07 2.96502e+07 2.98675e+07 3.01813e+07 3.03437e+07 3.03912e+07
          3.04689e+07 3.05347e+07 3.05806e+07 3.06363e+07 3.11652e+07 3.21788e+07 3.27901e+07 3.29735e+07 3.31391e+07 2.98338e+07 2.98924e+07 3.00875e+07
          3.03999e+07 3.056e+07 3.06081e+07 3.06838e+07 3.07464e+07 3.07927e+07 3.08546e+07 3.1379e+07 3.24968e+07 3.31687e+07 3.33127e+07 3.37168e+07
          3.0044e+07 3.01103e+07 3.02657e+07 3.05549e+07 3.07537e+07 3.08066e+07 3.08884e+07 3.0955e+07 3.10171e+07 3.10955e+07 3.18375e+07 3.30337e+07
          3.35204e+07 3.36728e+07 3.41674e+07 3.02453e+07 3.03142e+07 3.04528e+07 3.07355e+07 3.0938e+07 3.09964e+07 3.10916e+07 3.11682e+07 3.12491e+07
          3.13396e+07 3.23416e+07 3.35852e+07 3.38851e+07 3.40706e+07 3.46063e+07 3.04291e+07 3.0492e+07 3.06588e+07 3.09567e+07 3.11225e+07 3.11896e+07
          3.1302e+07 3.13913e+07 3.1496e+07 3.1609e+07 3.27702e+07 3.40418e+07 3.4299e+07 3.45069e+07 3.49222e+07 3.05972e+07 3.06571e+07 3.08036e+07
          3.11024e+07 3.13147e+07 3.13836e+07 3.15104e+07 3.16145e+07 3.17427e+07 3.18952e+07 3.32429e+07 3.44395e+07 3.47252e+07 3.49136e+07 3.52019e+07
        </DataArray>
        <DataArray type="Float32" Name="pressure[1]" NumberOfComponents="1" format="ascii">
          2.0824e+07 2.08384e+07 2.13245e+07 2.18308e+07 2.22415e+07 2.27257e+07 2.28804e+07 2.29351e+07 2.3001e+07 2.30725e+07 2.32974e+07 2.36737e+07
          2.39533e+07 2.46252e+07 2.54065e+07 2.08676e+07 2.08821e+07 2.14156e+07 2.19257e+07 2.2391e+07 2.29089e+07 2.30243e+07 2.30665e+07 2.31355e+07
          2.32185e+07 2.35436e+07 2.39271e+07 2.41464e+07 2.48291e+07 2.55745e+07 2.09114e+07 2.09258e+07 2.14844e+07 2.2054e+07 2.24692e+07 2.29642e+07
          2.31082e+07 2.31736e+07 2.32686e+07 2.33885e+07 2.38385e+07 2.42851e+07 2.44824e+07 2.50928e+07 2.57894e+07 2.09557e+07 2.09705e+07 2.13591e+07
          2.21797e+07 2.25825e+07 2.30742e+07 2.32119e+07 2.32736e+07 2.3434e+07 2.36376e+07 2.42399e+07 2.47171e+07 2.48918e+07 2.54011e+07 2.60582e+07
          2.10448e+07 2.10709e+07 1.9768e+07 2.22564e+07 2.2666e+07 2.3365e+07 2.35186e+07 2.35789e+07 2.38097e+07 2.42019e+07 2.47188e+07 2.51261e+07
          2.52936e+07 2.57458e+07 2.63209e+07 2.12363e+07 2.12793e+07 2.16616e+07 2.28034e+07 2.34634e+07 2.40532e+07 2.41229e+07 2.41839e+07 2.44013e+07
          2.47941e+07 2.52426e+07 2.54809e+07 2.56618e+07 2.60934e+07 2.6615e+07 2.14787e+07 2.15276e+07 2.21854e+07 2.37397e+07 2.42585e+07 2.4707e+07
          2.47813e+07 2.48629e+07 2.49799e+07 2.53642e+07 2.56929e+07 2.57856e+07 2.596e+07 2.64661e+07 2.70242e+07 2.18238e+07 2.18776e+07 2.29765e+07
          2.4049e+07 2.48206e+07 2.52622e+07 2.53177e+07 2.53706e+07 2.54924e+07 2.57796e+07 2.59833e+07 2.60512e+07 2.62886e+07 2.68465e+07 2.7589e+07
          2.23202e+07 2.23827e+07 2.34199e+07 2.43552e+07 2.54323e+07 2.57541e+07 2.58589e+07 2.59609e+07 2.60374e+07 2.61872e+07 2.62761e+07 2.63026e+07
          2.65498e+07 2.72711e+07 2.81508e+07 2.2921e+07 2.30222e+07 2.36834e+07 2.43454e+07 2.59582e+07 2.61847e+07 2.64187e+07 2.66311e+07 2.65954e+07
          2.66025e+07 2.66251e+07 2.66528e+07 2.69157e+07 2.76959e+07 2.84837e+07 2.38008e+07 2.39449e+07 2.42942e+07 2.47571e+07 2.6329e+07 2.64995e+07
          2.6873e+07 2.71906e+07 2.70713e+07 2.70084e+07 2.6977e+07 2.70139e+07 2.72386e+07 2.80491e+07 2.87355e+07 2.446e+07 2.4574e+07 2.48609e+07
          2.52543e+07 2.66959e+07 2.68071e+07 2.73353e+07 2.77609e+07 2.78001e+07 2.73916e+07 2.73421e+07 2.73903e+07 2.76877e+07 2.84359e+07 2.95128e+07
          2.55747e+07 2.56116e+07 2.56262e+07 2.5978e+07 2.72185e+07 2.73304e+07 2.78973e+07 2.83909e+07 2.84894e+07 2.8446e+07 2.83708e+07 2.85833e+07
          2.91077e+07 3.00161e+07 3.02195e+07 2.65495e+07 2.65828e+07 2.64014e+07 2.67837e+07 2.80673e+07 2.81795e+07 2.86494e+07 2.90187e+07 2.90889e+07
          2.91657e+07 2.92242e+07 2.96984e+07 3.03574e+07 3.08857e+07 3.06504e+07 2.7316e+07 2.73125e+07 2.73446e+07 2.84217e+07 2.89148e+07 2.89779e+07
          2.92889e+07 2.95122e+07 2.95636e+07 2.96437e+07 2.97991e+07 3.05591e+07 3.11498e+07 3.13241e+07 3.11639e+07 2.79977e+07 2.80193e+07 2.81128e+07
          2.91751e+07 2.94134e+07 2.9468e+07 2.96873e+07 2.98312e+07 2.98805e+07 2.99547e+07 3.02486e+07 3.09754e+07 3.15157e+07 3.18235e+07 3.1648e+07
          2.87032e+07 2.8753e+07 2.91366e+07 2.96974e+07 2.98176e+07 2.98553e+07 2.9968e+07 3.00673e+07 3.01153e+07 3.01786e+07 3.05692e+07 3.14356e+07
          3.2019e+07 3.23197e+07 3.20908e+07 2.92723e+07 2.9332e+07 2.96996e+07 2.99766e+07 3.00983e+07 3.01422e+07 3.02303e+07 3.03045e+07 3.03545e+07
          3.04123e+07 3.0893e+07 3.18095e+07 3.24061e+07 3.26514e+07 3.25314e+07 2.9584e+07 2.96502e+07 2.98675e+07 3.01813e+07 3.03437e+07 3.03912e+07
          3.04689e+07 3.05347e+07 3.05806e+07 3.06363e+07 3.11652e+07 3.21788e+07 3.27901e+07 3.29735e+07 3.31391e+07 2.98338e+07 2.98924e+07 3.00875e+07
          3.03999e+07 3.056e+07 3.06081e+07 3.06838e+07 3.07464e+07 3.07927e+07 3.08546e+07 3.1379e+07 3.24968e+07 3.31687e+07 3.33127e+07 3.37168e+07
          3.0044e+07 3.01103e+07 3.02657e+07 3.05549e+07 3.07537e+07 3.08066e+07 3.08884e+07 3.0955e+07 3.10171e+07 3.10955e+07 3.18375e+07 3.30337e+07
          3.35204e+07 3.36728e+07 3.41674e+07 3.02453e+07 3.03142e+07 3.04528e+07 3.07355e+07 3.0938e+07 3.09964e+07 3.10916e+07 3.11682e+07 3.12491e+07
          3.13396e+07 3.23416e+07 3.35852e+07 3.38851e+07 3.40706e+07 3.46063e+07 3.04291e+07 3.0492e+07 3.06588e+07 3.09567e+07 3.11225e+07 3.11896e+07
          3.1302e+07 3.13913e+07 3.1496e+07 3.1609e+07 3.27702e+07 3.40418e+07 3.4299e+07 3.45069e+07 3.49222e+07 3.05972e+07 3.06571e+07 3.08036e+07
          3.11024e+07 3.13147e+07 3.13836e+07 3.15104e+07 3.16145e+07 3.17427e+07 3.18952e+07 3.32429e+07 3.44395e+07 3.47252e+07 3.49136e+07 3.52019e+07
        </DataArray>
        <DataArray type="Float32" Name="pressure[2]" NumberOfComponents="1" format="ascii">
          2.0824e+07 2.08384e+07 2.13245e+07 2.18308e+07 2.22415e+07 2.27257e+07 2.28804e+07 2.29351e+07 2.3001e+07 2.30725e+07 2.32974e+07 2.36737e+07
          2.39533e+07 2.46252e+07 2.54065e+07 2.08676e+07 2.08821e+07 2.14156e+07 2.19257e+07 2.2391e+07 2.29089e+07 2.30243e+07 2.30665e+07 2.31355e+07
          2.32185e+07 2.35436e+07 2.39271e+07 2.41464e+07 2.48291e+07 2.55745e+07 2.09114e+07 2.09258e+07 2.14844e+07 2.2054e+07 2.24692e+07 2.29642e+07
          2.31082e+07 2.31736e+07 2.32686e+07 2.33885e+07 2.38385e+07 2.42851e+07 2.44824e+07 2.50928e+07 2.57894e+07 2.09557e+07 2.09705e+07 2.13591e+07
          2.21797e+07 2.25825e+07 2.30742e+07 2.32119e+07 2.32736e+07 2.3434e+07 2.36376e+07 2.42399e+07 2.47171e+07 2.48918e+07 2.54011e+07 2.60582e+07
          2.10448e+07 2.10709e+07 1.9768e+07 2.22564e+07 2.2666e+07 2.3365e+07 2.35186e+07 2.35789e+07 2.38097e+07 2.42019e+07 2.47188e+07 2.51261e+07
          2.52936e+07 2.57458e+07 2.63209e+07 2.12363e+07 2.12793e+07 2.16616e+07 2.28034e+07 2.34634e+07 2.40532e+07 2.41229e+07 2.41839e+07 2.44013e+07
          2.47941e+07 2.52426e+07 2.54809e+07 2.56618e+07 2.60934e+07 2.6615e+07 2.14787e+07 2.15276e+07 2.21854e+07 2.37397e+07 2.42585e+07 2.4707e+07
          2.47813e+07 2.48629e+07 2.49799e+07 2.53642e+07 2.56929e+07 2.57856e+07 2.596e+07 2.64661e+07 2.70242e+07 2.18238e+07 2.18776e+07 2.29765e+07
          2.4049e+07 2.48206e+07 2.52622e+07 2.53177e+07 2.53706e+07 2.54924e+07 2.57796e+07 2.59833e+07 2.60512e+07 2.62886e+07 2.68465e+07 2.7589e+07
          2.23202e+07 2.23827e+07 2.34199e+07 2.43552e+07 2.54323e+07 2.57541e+07 2.58589e+07 2.59609e+07 2.60374e+07 2.61872e+07 2.62761e+07 2.63026e+07
          2.65498e+07 2.72711e+07 2.81508e+07 2.2921e+07 2.30222e+07 2.36834e+07 2.43454e+07 2.59582e+07 2.61847e+07 2.64187e+07 2.66311e+07 2.65954e+07
          2.66025e+07 2.66251e+07 2.66528e+07 2.69157e+07 2.76959e+07 2.84837e+07 2.38008e+07 2.39449e+07 2.42942e+07 2.47571e+07 2.6329e+07 2.64995e+07
          2.6873e+07 2.71906e+07 2.70713e+07 2.70084e+07 2.6977e+07 2.70139e+07 2.72386e+07 2.80491e+07 2.87355e+07 2.446e+07 2.4574e+07 2.48609e+07
          2.52543e+07 2.66959e+07 2.68071e+07 2.73353e+07 2.77609e+07 2.78001e+07 2.73916e+07 2.73421e+07 2.73903e+07 2.76877e+07 2.84359e+07 2.95128e+07
          2.55747e+07 2.56116e+07 2.56262e+07 2.5978e+07 2.72185e+07 2.73304e+07 2.78973e+07 2.83909e+07 2.84894e+07 2.8446e+07 2.83708e+07 2.85833e+07
          2.91077e+07 3.00161e+07 3.02195e+07 2.65495e+07 2.65828e+07 2.64014e+07 2.67837e+07 2.80673e+07 2.81795e+07 2.86494e+07 2.90187e+07 2.90889e+07
          2.91657e+07 2.92242e+07 2.96984e+07 3.03574e+07 3.08857e+07 3.06504e+07 2.7316e+07 2.73125e+07 2.73446e+07 2.84217e+07 2.89148e+07 2.89779e+07
          2.92889e+07 2.95122e+07 2.95636e+07 2.96437e+07 2.97991e+07 3.05591e+07 3.11498e+07 3.13241e+07 3.11639e+07 2.79977e+07 2.80193e+07 2.81128e+07
          2.91751e+07 2.94134e+07 2.9468e+07 2.96873e+07 2.98312e+07 2.98805e+07 2.99547e+07 3.02486e+07 3.09754e+07 3.15157e+07 3.18235e+07 3.1648e+07
          2.87032e+07 2.8753e+07 2.91366e+07 2.96974e+07 2.98176e+07 2.98553e+07 2.9968e+07 3.00673e+07 3.01153e+07 3.01786e+07 3.05692e+07 3.14356e+07
          3.2019e+07 3.23197e+07 3.20908e+07 2.92723e+07 2.9332e+07 2.96996e+07 2.99766e+07 3.00983e+07 3.01422e+07 3.02303e+07 3.03045e+07 3.03545e+07
          3.04123e+07 3.0893e+07 3.18095e+07 3.24061e+07 3.26514e+07 3.25314e+07 2.9584e+07 2.96502e+07 2.98675e+07 3.01813e+07 3.03437e+07 3.03912e+07
          3.04689e+07 3.05347e+07 3.05806e+07 3.06363e+07 3.11652e+07 3.21788e+07 3.27901e+07 3.29735e+07 3.31391e+07 2.98338e+07 2.98924e+07 3.00875e+07
          3.03999e+07 3.056e+07 3.06081e+07 3.06838e+07 3.07464e+07 3.07927e+07 3.08546e+07 3.1379e+07 3.24968e+07 3.31687e+07 3.33127e+07 3.37168e+07
          3.0044e+07 3.01103e+07 3.02657e+07 3.05549e+07 3.07537e+07 3.08066e+07 3.08884e+07 3.0955e+07 3.10171e+07 3.10955e+07 3.18375e+07 3.30337e+07
          3.35204e+07 3.36728e+07 3.41674e+07 3.02453e+07 3.03142e+07 3.04528e+07 3.07355e+07 3.0938e+07 3.09964e+07 3.10916e+07 3.11682e+07 3.12491e+07
          3.13396e+07 3.23416e+07 3.35852e+07 3.38851e+07 3.40706e+07 3.46063e+07 3.04291e+07 3.0492e+07 3.06588e+07 3.09567e+07 3.11225e+07 3.11896e+07
          3.1302e+07 3.13913e+07 3.1496e+07 3.1609e+07 3.27702e+07 3.40418e+07 3.4299e+07 3.45069e+07 3.49222e+07 3.05972e+07 3.06571e+07 3.08036e+07
          3.11024e+07 3.13147e+07 3.13836e+07 3.15104e+07 3.16145e+07 3.17427e+07 3.18952e+07 3.32429e+07 3.44395e+07 3.47252e+07 3.49136e+07 3.52019e+07
        </DataArray>
        <DataArray type="Float32" Name="velocity[0]" NumberOfComponents="1" format="ascii">
          -2.71741e-11 2.86544e-08 3.33022e-10 7.35717e-09 -1.05304e-10 -1.42097e-09 -5.0898e-10 1.23448e-09 1.57433e-09 -8.67335e-10 -2.19591e-09 -3.22048e-09
          -2.28446e-09 -6.91852e-10 -2.82203e-09 -1.42253e-09 8.28167e-08 6.58874e-10 1.53377e-08 4.33027e-10 2.05813e-09 8.19309e-09 5.56231e-09 2.94999e-09
          -3.77996e-09 -4.56849e-09 -1.34049e-08 -8.32689e-09 -2.11504e-09 -7.46494e-09 -9.8225e-09 1.25861e-07 1.18753e-09 5.57914e-08 9.74727e-10 5.32803e-09
          1.36649e-08 9.68852e-09 -5.27957e-10 -8.90398e-09 -5.6719e-09 -3.33208e-08 -1.15682e-08 -4.31144e-09 -1.11089e-08 -2.415e-08 1.58609e-07 6.01488e-09
          1.56054e-07 1.98569e-09 -7.29339e-09 -7.07295e-09 -8.33148e-09 -9.69032e-09 -1.81838e-08 -7.76311e-09 -5.87588e-08 -8.15619e-09 -6.06871e-09 -1.50027e-08
          -8.9833e-08 -1.78291e-08 1.05631e-10 1.96159e-08 -5.47188e-09 -4.87041e-08 -5.54741e-08 -5.78289e-08 -1.55062e-08 -1.84031e-08 -1.06417e-08 -9.80205e-08
          -4.10808e-09 -5.49091e-09 -1.83242e-08 -1.56872e-07 -1.91032e-07 -6.06202e-09 -1.26761e-07 -1.68449e-08 -1.20227e-07 -7.81897e-08 -1.11741e-07 -1.40052e-08
          -8.78729e-09 -1.46759e-08 -1.3745e-07 -2.40469e-09 -4.34436e-09 -2.04821e-08 -1.59409e-07 -1.69046e-07 -2.97531e-09 -4.66733e-08 -1.49454e-08 -1.8098e-07
          -5.95472e-08 -1.7886e-07 -1.03893e-08 -3.85347e-09 -1.70678e-08 -1.58291e-07 -1.96716e-09 -4.18014e-09 -2.19367e-08 -1.45733e-07 -1.57158e-07 -3.24973e-09
          -1.13526e-08 -9.65704e-09 -2.11589e-07 -3.40256e-08 -2.56765e-07 -7.00362e-09 -2.5178e-09 -1.81491e-08 -1.66853e-07 -1.55262e-09 -4.18986e-09 -2.35912e-08
          -1.3047e-07 -1.41533e-07 -2.04434e-09 -1.8131e-09 -8.27594e-09 -2.2903e-07 -1.24678e-08 -3.22493e-07 -5.0396e-09 -2.61352e-09 -2.87714e-08 -1.53543e-07
          -1.4207e-09 -3.70329e-09 -2.58085e-08 -1.04058e-07 -1.29291e-07 -8.07052e-09 -2.12434e-10 -6.21799e-09 -2.32004e-07 -4.15043e-09 -3.90404e-07 -4.35525e-09
          -3.07455e-09 -4.75724e-08 -1.23424e-07 -2.10755e-09 -3.08378e-09 -2.80417e-08 -7.31132e-08 -1.16365e-07 -2.02171e-08 -2.07318e-09 -5.52672e-09 -2.29169e-07
          -1.39721e-09 -4.54701e-07 -4.81161e-09 -4.11267e-09 -5.95689e-08 -9.12916e-08 -4.8379e-09 -3.58218e-09 -3.00205e-08 -4.70308e-08 -8.42223e-08 -4.3031e-08
          -2.21493e-09 -8.26348e-09 -2.31173e-07 -1.1642e-09 -4.97553e-07 -1.5402e-08 -5.9965e-09 -5.27071e-08 -5.4802e-08 -1.46819e-08 -7.48525e-09 -3.14532e-08
          -3.40567e-08 -6.78717e-08 -4.8696e-08 -4.23097e-09 -1.30868e-08 -2.18565e-07 -1.67256e-09 -5.09905e-07 -4.61286e-08 -7.64609e-09 -3.3872e-08 -2.20097e-08
          -2.90086e-08 -1.45477e-08 -3.19958e-08 -3.64739e-08 -7.83398e-08 -2.89681e-08 -5.20048e-09 -1.9479e-08 -2.03048e-07 -1.7144e-09 -4.8124e-07 -8.05674e-08
          -1.29004e-08 -1.9226e-08 -6.81976e-09 -3.31422e-08 -2.59193e-08 -3.05418e-08 -4.48238e-08 -7.30864e-08 -1.6087e-08 -3.67866e-09 -2.61853e-08 -2.01617e-07
          -1.21691e-09 -4.35566e-07 -9.74111e-08 -2.16632e-08 -1.29488e-08 -3.56092e-09 -3.05367e-08 -4.02241e-08 -2.71207e-08 -5.55051e-08 -5.81754e-08 -7.92356e-09
          -3.33754e-09 -3.2197e-08 -1.98916e-07 -1.5106e-09 -3.70086e-07 -1.01915e-07 -3.08637e-08 -8.00631e-09 -4.81651e-09 -3.43749e-08 -5.89278e-08 -2.27052e-08
          -5.95467e-08 -4.57132e-08 -3.72709e-09 -4.35753e-09 -4.55082e-08 -1.73847e-07 -2.91857e-09 -2.92889e-07 -1.02705e-07 -4.8207e-08 -3.40326e-09 -4.75843e-09
          -2.79548e-08 -8.72256e-08 -1.79502e-08 -5.83162e-08 -3.61278e-08 -1.60762e-09 -2.96139e-09 -6.73032e-08 -1.25062e-07 -4.46912e-09 -2.23261e-07 -1.10592e-07
          -7.26438e-08 -2.426e-09 -3.22064e-09 -1.81292e-08 -1.1384e-07 -1.39545e-08 -5.24086e-08 -2.57653e-08 -1.10073e-09 -1.19541e-09 -8.36852e-08 -7.95837e-08
          -4.70706e-09 -1.58941e-07 -1.10276e-07 -1.13765e-07 -1.41677e-09 -2.65423e-09 -2.36733e-08 -1.2999e-07 -1.21821e-08 -4.34137e-08 -1.73529e-08 -1.33566e-09
          -5.71501e-10 -8.96046e-08 -4.54433e-08 -3.93994e-09 -1.16264e-07 -7.12181e-08 -1.96679e-07 -2.46326e-09 -3.76618e-09 -3.52024e-08 -1.37743e-07 -1.30824e-08
          -3.31698e-08 -1.17006e-08 -1.24413e-09 -1.46401e-10 -8.36455e-08 -2.38724e-08 -3.38877e-09 -9.14329e-08 -2.97617e-08 -2.72546e-07 -3.85737e-09 -6.93242e-09
          -4.28508e-08 -1.43853e-07 -1.50067e-08 -2.08652e-08 -5.97023e-09 -1.98361e-09 -7.64767e-10 -6.19937e-08 -1.6291e-08 -3.31477e-09 -8.61362e-08 -1.61298e-08
          -2.87953e-07 -3.52173e-09 -1.33325e-08 -4.68947e-08 -1.50051e-07 -1.86022e-08 -9.74195e-09 -2.38841e-09 -8.95308e-10 -5.06288e-10 -3.10059e-08 -1.21796e-08
          -2.71978e-09 -9.07395e-08 -1.2988e-08 -2.47999e-07 -4.8874e-09 -2.2994e-08 -6.13911e-08 -1.56229e-07 -2.42646e-08 -2.58167e-09 -5.38415e-10 1.97403e-10
          7.33324e-11 -7.3252e-09 -4.65123e-09 -9.95427e-10 -4.62126e-08 -6.04741e-09 -1.07201e-07 -3.22387e-09 -1.39488e-08 -3.66285e-08 -8.02649e-08 -1.36192e-08
        </DataArray>
        <DataArray type="Float32" Name="velocity[1]" NumberOfComponents="1" format="ascii">
          4.22317e-27 4.54454e-24 1.07105e-25 1.14339e-24 1.63654e-26 0 7.91015e-26 -1.71624e-25 1.73452e-26 6.03793e-24 -3.87187e-24 1.8007e-26
          2.46752e-24 -9.67163e-25 4.38919e-25 2.12632e-25 3.88636e-24 1.05909e-25 9.6884e-26 -2.25603e-25 8.14303e-24 1.37128e-24 4.11932e-25 -7.79916e-24
          -9.03183e-26 0 -1.54888e-26 1.7907e-26 1.11771e-27 2.82984e-25 1.09282e-24 -6.05265e-24 -1.36432e-24 6.19009e-24 -3.53219e-25 0
          5.65665e-25 -1.80044e-25 -5.09638e-25 0 7.34823e-24 -1.19148e-23 0 1.13216e-24 -2.82742e-25 2.31028e-24 1.03912e-23 -1.23933e-24
          -1.50566e-23 -5.9021e-25 1.14862e-23 -2.62023e-23 3.18052e-23 -3.87648e-24 1.09973e-24 3.85365e-24 -4.74684e-24 2.95019e-24 -1.28609e-24 9.65127e-25
          -9.38055e-26 -5.95695e-23 5.04788e-24 1.03812e-23 -1.26669e-24 -3.96602e-24 -2.89553e-25 6.68975e-26 3.41738e-25 -6.36715e-24 4.46782e-24 -8.3179e-24
          2.7937e-28 1.3548e-25 -1.5211e-24 -1.20326e-25 5.73405e-24 -2.95865e-26 4.24952e-24 -2.36037e-25 -5.97806e-24 0 5.10712e-26 5.24211e-25
          6.64831e-25 -3.52561e-25 7.16426e-24 -1.27705e-24 7.57943e-25 1.52156e-24 -7.99033e-25 7.35173e-25 0 3.88814e-24 -9.06577e-25 -1.13226e-23
          1.51536e-25 4.29393e-26 -1.67691e-24 -1.80038e-27 3.3091e-28 -4.37025e-29 1.72768e-26 2.60731e-28 -1.66206e-24 -1.68622e-25 1.15189e-23 1.52907e-24
          2.01601e-24 1.12544e-25 1.37519e-23 -1.20951e-26 8.19562e-26 3.78033e-25 6.20737e-27 -2.47525e-24 -1.21764e-23 2.82776e-28 -3.27168e-25 1.91918e-24
          -1.35096e-24 -8.13912e-24 9.03127e-26 -2.01297e-24 -1.25443e-25 2.51603e-24 0 0 2.46663e-25 -5.30911e-28 2.87994e-25 4.25344e-24
          5.67533e-28 6.0246e-26 2.69565e-28 -9.53978e-24 1.04783e-24 1.3505e-24 -3.51152e-25 -2.07657e-24 2.91817e-24 -5.47005e-24 5.66532e-24 -9.86056e-26
          -5.07393e-26 1.24879e-25 3.46925e-24 -7.78541e-25 0 -2.09177e-24 3.06509e-24 1.44365e-25 8.68281e-25 -1.92131e-25 1.97981e-24 -4.98763e-28
          -3.56124e-24 8.66448e-24 5.80005e-26 1.09709e-25 -4.77726e-25 6.83891e-24 1.70598e-24 -2.65799e-25 1.32899e-25 -2.57856e-24 7.45166e-24 -2.68615e-24
          -1.53253e-25 -1.3993e-24 -1.80667e-23 3.02404e-26 2.33323e-24 -3.5445e-24 -1.82339e-25 1.58721e-24 3.14205e-24 -1.67661e-24 1.00685e-24 -8.94724e-26
          2.71455e-24 4.66509e-24 0 -2.36659e-25 4.13685e-25 2.16886e-24 4.90686e-26 -4.07268e-25 -3.18852e-24 4.6023e-28 -1.92006e-24 -7.7774e-25
          1.0756e-24 -8.27723e-25 -1.81065e-28 2.39958e-25 1.32607e-27 8.481e-25 1.72077e-25 5.86971e-28 1.48973e-23 -4.17577e-26 -4.04177e-24 5.80025e-24
          -9.32626e-25 1.91989e-24 2.01717e-24 -4.16143e-24 7.63744e-29 -2.26291e-24 -2.96038e-24 -5.06131e-24 -2.21207e-27 3.61115e-25 4.61969e-25 5.93218e-28
          -3.50525e-26 -7.49372e-24 1.97377e-24 0 0 2.82132e-25 3.48288e-24 -4.3841e-25 4.21501e-24 0 1.09171e-24 0
          -3.08101e-25 4.72777e-25 3.82019e-28 8.06959e-26 -7.1224e-24 9.17441e-29 1.04091e-28 -6.36856e-29 3.6777e-24 -2.28812e-28 -1.09621e-24 -1.9518e-24
          -1.95727e-28 8.45172e-25 2.517e-28 -6.14202e-26 1.59659e-24 -9.13208e-24 0 -9.37466e-24 0 -1.71446e-29 2.72378e-24 -3.38079e-24
          -1.56611e-24 2.33383e-28 1.21297e-24 0 3.12965e-24 0 3.69356e-25 1.48391e-24 4.47827e-24 1.02493e-25 -5.94577e-24 -5.09205e-24
          -1.91327e-24 1.6173e-25 4.77254e-26 -3.12653e-29 -1.58335e-24 -9.55733e-25 3.72194e-24 -1.90288e-24 2.06061e-24 -1.6714e-24 7.55259e-25 7.65407e-24
          -6.55581e-26 -4.04983e-24 9.26734e-24 4.86738e-24 -2.92588e-24 6.42289e-26 8.2269e-25 -3.95765e-28 9.37515e-25 1.19761e-28 -3.37763e-24 7.32317e-25
          -1.53449e-24 3.29513e-25 -2.36667e-24 -1.07002e-25 -5.16495e-24 -4.67427e-24 8.40986e-24 2.38768e-25 3.13963e-24 9.68924e-25 -3.16657e-25 -7.79383e-25
          -8.95155e-25 5.37741e-25 0 -3.44406e-26 -1.09092e-24 3.89752e-24 -6.85266e-24 6.85332e-24 -5.0414e-24 8.80673e-28 0 0
          2.19788e-25 -5.89825e-28 1.23658e-24 -1.01712e-24 -1.06932e-24 9.86215e-25 -1.65584e-24 -7.79152e-25 -1.16968e-24 2.02047e-26 4.53498e-25 -3.28934e-24
          1.19029e-23 -2.28909e-25 -5.73365e-24 4.08346e-25 8.36488e-25 -1.03492e-28 -7.1137e-25 -2.31691e-28 -2.4099e-28 1.00765e-25 -2.54209e-24 4.47455e-25
          -1.13283e-25 8.98592e-24 -3.73855e-24 0 -2.42496e-25 -7.61766e-25 5.82825e-24 -6.69209e-25 0 -4.01445e-25 -2.27383e-28 -3.27057e-25
          5.55046e-25 -1.13812e-24 -1.89687e-24 -3.10048e-25 -2.44244e-24 9.39838e-25 -2.60141e-23 0 2.60448e-23 -1.91375e-23 1.58384e-23 3.97228e-25
        </DataArray>
        <DataArray type="Float32" Name="velocity[2]" NumberOfComponents="1" format="ascii">
          1.1017e-11 3.681e-09 -2.68548e-09 -1.70243e-09 -3.25412e-09 -3.35302e-09 -3.09107e-09 -2.79445e-09 -2.85173e-09 -3.32544e-09 -3.36213e-09 -3.18963e-09
          -2.65984e-09 -2.10817e-09 -1.43756e-09 -1.45451e-10 1.35638e-08 -2.11405e-09 6.05593e-10 -1.94226e-09 -1.86459e-09 -1.24264e-09 -2.02825e-09 -2.55155e-09
          -3.62794e-09 -3.65098e-09 -4.76275e-09 -3.1853e-09 -1.70864e-09 -1.92262e-09 -1.24823e-09 2.22969e-08 -5.53112e-10 7.20997e-09 -4.25097e-09 -3.32444e-09
          -1.66187e-09 -2.28487e-09 -3.91164e-09 -5.051e-09 -4.27303e-09 -8.29371e-09 -3.70766e-09 -2.21874e-09 -2.56595e-09 -3.75299e-09 2.82186e-08 2.43492e-10
          2.3477e-08 -6.56e-09 -7.65225e-09 -6.64523e-09 -5.90728e-09 -5.2934e-09 -6.18848e-09 -4.01752e-09 -1.21918e-08 -2.72113e-09 -2.49751e-09 -3.33459e-09
          -1.19078e-08 1.80519e-09 -7.63722e-10 -3.47831e-09 -1.05676e-08 -1.62112e-08 -1.5312e-08 -1.41391e-08 -5.94384e-09 -6.76949e-09 -5.56098e-09 -1.92773e-08
          -1.18961e-09 -1.65572e-09 -3.64756e-09 -2.70333e-08 -3.33069e-08 -1.68502e-09 -2.58005e-08 -9.06643e-09 -2.53711e-08 -1.63705e-08 -2.19382e-08 -4.23133e-09
          -3.62657e-09 -4.68992e-09 -2.54337e-08 -8.98188e-10 -1.32339e-09 -3.91352e-09 -2.84518e-08 -3.06112e-08 -1.2778e-09 -1.04105e-08 -6.72099e-09 -3.54371e-08
          -1.34435e-08 -3.36172e-08 -2.94386e-09 -2.03427e-09 -4.41244e-09 -2.88192e-08 -7.554e-10 -1.11977e-09 -4.05029e-09 -2.61293e-08 -2.89164e-08 -2.19818e-09
          -4.06951e-09 -4.2027e-09 -3.94089e-08 -8.04066e-09 -4.68307e-08 -1.96311e-09 -1.24668e-09 -3.9408e-09 -3.00759e-08 -9.40763e-10 -1.45847e-09 -4.52843e-09
          -2.34492e-08 -2.61376e-08 -1.8866e-09 -2.12281e-09 -3.53187e-09 -4.21935e-08 -3.87333e-09 -5.78516e-08 -1.09132e-09 -7.04421e-10 -4.70223e-09 -2.69117e-08
          -8.87313e-10 -1.32778e-09 -4.91963e-09 -1.95307e-08 -2.53215e-08 -3.51775e-09 -1.43545e-09 -2.45393e-09 -4.2499e-08 -2.54684e-09 -6.97463e-08 -6.96637e-10
          -4.53423e-10 -7.70496e-09 -2.14843e-08 -1.05886e-09 -1.25134e-09 -5.31828e-09 -1.36742e-08 -2.24343e-08 -5.32893e-09 -1.64565e-09 -2.24315e-09 -4.16173e-08
          -1.43386e-09 -8.06346e-08 -5.38163e-10 -3.64073e-10 -9.93682e-09 -1.62947e-08 -1.82935e-09 -1.32358e-09 -5.57866e-09 -9.20997e-09 -1.78836e-08 -1.03234e-08
          -1.60606e-09 -2.53275e-09 -4.16617e-08 -1.03612e-09 -8.81607e-08 -2.12853e-09 1.89318e-10 -8.61281e-09 -1.08421e-08 -4.52155e-09 -2.23139e-09 -5.73815e-09
          -5.94725e-09 -1.14602e-08 -8.68898e-09 -1.77404e-09 -3.11789e-09 -3.98591e-08 -2.25563e-09 -9.19354e-08 -8.99522e-09 -9.59662e-10 -6.14583e-09 -5.35469e-09
          -6.84739e-09 -3.18725e-09 -5.62698e-09 -6.32767e-09 -1.34739e-08 -5.34498e-09 -1.88977e-09 -4.23567e-09 -3.64731e-08 -1.05844e-09 -8.62997e-08 -1.55193e-08
          -2.56314e-09 -3.83448e-09 -2.18591e-09 -7.20379e-09 -4.86991e-09 -4.91204e-09 -7.45285e-09 -1.23781e-08 -3.12728e-09 -1.3952e-09 -5.2539e-09 -3.6023e-08
          -6.84893e-10 -7.78051e-08 -1.85256e-08 -4.83417e-09 -3.18877e-09 -1.5881e-09 -6.33692e-09 -6.8952e-09 -4.115e-09 -9.52946e-09 -1.00935e-08 -1.88227e-09
          -1.34101e-09 -6.23663e-09 -3.56055e-08 -9.15234e-10 -6.71155e-08 -2.09551e-08 -8.12286e-09 -4.14626e-09 -3.7668e-09 -8.65363e-09 -1.07592e-08 -3.19853e-09
          -1.04891e-08 -8.31069e-09 -1.24406e-09 -1.40074e-09 -8.0897e-09 -3.12093e-08 -2.08244e-09 -5.40268e-08 -2.13749e-08 -1.13311e-08 -2.9776e-09 -3.32831e-09
          -8.17322e-09 -1.65581e-08 -2.38476e-09 -1.03762e-08 -6.7643e-09 -1.00366e-09 -1.45091e-09 -1.22673e-08 -2.30733e-08 -3.03878e-09 -4.26071e-08 -2.32473e-08
          -1.55432e-08 -2.7019e-09 -2.88417e-09 -5.50556e-09 -2.06678e-08 -1.90868e-09 -9.54042e-09 -5.45478e-09 -1.34328e-09 -1.28409e-09 -1.55695e-08 -1.54701e-08
          -3.16103e-09 -3.10638e-08 -2.37168e-08 -2.37185e-08 -2.78623e-09 -3.05995e-09 -6.43802e-09 -2.38378e-08 -2.10889e-09 -7.95283e-09 -3.76697e-09 -1.10696e-09
          -1.05945e-09 -1.6735e-08 -9.60191e-09 -3.00325e-09 -2.32621e-08 -1.75665e-08 -3.93296e-08 -2.82121e-09 -2.86214e-09 -7.89816e-09 -2.52653e-08 -2.64595e-09
          -6.23301e-09 -3.00441e-09 -1.2872e-09 -1.03609e-09 -1.61231e-08 -6.25388e-09 -2.94383e-09 -1.86936e-08 -8.72103e-09 -5.13444e-08 -3.10365e-09 -3.55608e-09
          -9.69681e-09 -2.66916e-08 -2.94847e-09 -4.11563e-09 -2.03911e-09 -1.43236e-09 -1.18047e-09 -1.2738e-08 -5.51726e-09 -3.28329e-09 -1.78061e-08 -5.51887e-09
          -5.38393e-08 -3.95056e-09 -5.40705e-09 -1.08642e-08 -2.85651e-08 -4.17646e-09 -2.02315e-09 -1.09746e-09 -1.01177e-09 -1.08788e-09 -7.37113e-09 -5.05816e-09
          -3.54393e-09 -1.90392e-08 -5.33777e-09 -4.81752e-08 -6.55047e-09 -9.34956e-09 -1.50347e-08 -3.02488e-08 -5.27006e-09 -6.27442e-10 -4.66348e-10 -3.46631e-10
          -3.48002e-10 -2.03985e-09 -2.17628e-09 -1.77541e-09 -1.10076e-08 -5.52043e-09 -2.80071e-08 -1.19958e-08 -1.0517e-08 -1.20143e-08 -1.68093e-08 -2.82752e-09
        </DataArray>
        <DataArray type="Float32" Name="z[0]" NumberOfComponents="1" format="ascii">
          0.150578 0.150579 0.15058 0.150582 0.150582 0.150583 0.150584 0.150585 0.150585 0.150586 0.150587 0.150588
          0.150589 0.150591 0.150596 0.150581 0.150582 0.150583 0.150585 0.150586 0.150587 0.150587 0.150588 0.150588
          0.150589 0.15059 0.150591 0.150593 0.150595 0.150599 0.150584 0.150585 0.150587 0.150588 0.150589 0.15059
          0.15059 0.150591 0.150592 0.150593 0.150593 0.150595 0.150596 0.150598 0.150602 0.150588 0.150589 0.15059
          0.150591 0.150592 0.150773 0.153619 0.159344 0.150595 0.150596 0.150597 0.150598 0.150599 0.150601 0.150605
          0.150591 0.150592 0.150593 0.153873 0.173575 0.374622 0.390808 0.38575 0.150598 0.150599 0.1506 0.150601
          0.150602 0.150604 0.150609 0.150594 0.150595 0.150858 0.381048 0.422437 0.436459 0.407074 0.400544 0.150601
          0.150602 0.150603 0.150604 0.150605 0.150607 0.150612 0.150597 0.150598 0.153381 0.398857 0.441531 0.453884