<?xml version="1.0"?>
<VTKFile type="UnstructuredGrid" version="0.1" byte_order="LittleEndian">
  <UnstructuredGrid>
    <Piece NumberOfCells="360" NumberOfPoints="800">
      <CellData Scalars="pressure[0]">
        <DataArray type="Float32" Name="pressure[0]" NumberOfComponents="1" format="ascii">
          2.11177e+07 2.1132e+07 2.18353e+07 2.25476e+07 2.29377e+07 2.33429e+07 2.34691e+07 2.35161e+07 2.35739e+07 2.3637e+07 2.38062e+07 2.40863e+07
          2.42939e+07 2.48836e+07 2.56068e+07 2.11633e+07 2.11788e+07 2.19534e+07 2.27003e+07 2.3116e+07 2.35216e+07 2.36141e+07 2.36509e+07 2.371e+07
          2.37803e+07 2.40128e+07 2.42953e+07 2.44665e+07 2.50774e+07 2.57721e+07 2.12618e+07 2.13091e+07 2.20589e+07 2.28502e+07 2.32239e+07 2.36046e+07
          2.37154e+07 2.3768e+07 2.38434e+07 2.39371e+07 2.42482e+07 2.4567e+07 2.47424e+07 2.53151e+07 2.59798e+07 2.1391e+07 2.14376e+07 2.1914e+07
          2.29858e+07 2.33629e+07 2.37322e+07 2.38326e+07 2.38798e+07 2.39908e+07 2.41301e+07 2.45413e+07 2.49204e+07 2.5099e+07 2.55977e+07 2.62369e+07
          2.15229e+07 2.15448e+07 1.98105e+07 2.3086e+07 2.35726e+07 2.39547e+07 2.40192e+07 2.4054e+07 2.42232e+07 2.44713e+07 2.4903e+07 2.52602e+07
          2.54463e+07 2.59168e+07 2.649e+07 2.17294e+07 2.17723e+07 2.24441e+07 2.36493e+07 2.39708e+07 2.42158e+07 2.42583e+07 2.42935e+07 2.45108e+07
          2.48991e+07 2.53356e+07 2.55675e+07 2.57687e+07 2.62368e+07 2.67733e+07 2.19976e+07 2.20489e+07 2.32056e+07 2.41157e+07 2.43209e+07 2.44848e+07
          2.45241e+07 2.4557e+07 2.47665e+07 2.52988e+07 2.5732e+07 2.58396e+07 2.60319e+07 2.65829e+07 2.7166e+07 2.23861e+07 2.24422e+07 2.35962e+07
          2.44499e+07 2.46358e+07 2.47504e+07 2.47766e+07 2.4797e+07 2.50655e+07 2.56257e+07 2.60005e+07 2.6088e+07 2.63447e+07 2.69426e+07 2.7707e+07
          2.29527e+07 2.30171e+07 2.39357e+07 2.4724e+07 2.49454e+07 2.50403e+07 2.50929e+07 2.5235e+07 2.5538e+07 2.60408e+07 2.62881e+07 2.63315e+07
          2.65926e+07 2.73535e+07 2.82485e+07 2.36398e+07 2.37452e+07 2.42323e+07 2.48232e+07 2.52144e+07 2.52968e+07 2.54122e+07 2.58256e+07 2.60801e+07
          2.64592e+07 2.66413e+07 2.66803e+07 2.69588e+07 2.77713e+07 2.85731e+07 2.44116e+07 2.45273e+07 2.47856e+07 2.51538e+07 2.54424e+07 2.55023e+07
          2.5683e+07 2.63944e+07 2.66049e+07 2.68553e+07 2.70077e+07 2.70597e+07 2.73045e+07 2.81234e+07 2.88141e+07 2.51669e+07 2.52369e+07 2.53459e+07
          2.55215e+07 2.56663e+07 2.57012e+07 2.59517e+07 2.69851e+07 2.71197e+07 2.72686e+07 2.73874e+07 2.74561e+07 2.77142e+07 2.84824e+07 2.90724e+07
          2.57419e+07 2.57889e+07 2.58133e+07 2.59337e+07 2.59895e+07 2.5968e+07 2.64413e+07 2.75361e+07 2.7582e+07 2.77192e+07 2.78362e+07 2.7965e+07
          2.82114e+07 2.88454e+07 2.95949e+07 2.6202e+07 2.6252e+07 2.63053e+07 2.66199e+07 2.68181e+07 2.68779e+07 2.72936e+07 2.81545e+07 2.82094e+07
          2.82537e+07 2.83019e+07 2.84666e+07 2.95424e+07 3.02907e+07 3.00584e+07 2.65703e+07 2.66111e+07 2.68647e+07 2.73407e+07 2.75694e+07 2.77889e+07
          2.80822e+07 2.86759e+07 2.87218e+07 2.87592e+07 2.87921e+07 2.97323e+07 3.06207e+07 3.08087e+07 3.06262e+07 2.68865e+07 2.69613e+07 2.73511e+07
          2.78272e+07 2.83599e+07 2.84519e+07 2.87815e+07 2.90358e+07 2.90881e+07 2.91689e+07 2.94781e+07 3.03599e+07 3.10294e+07 3.13884e+07 3.11653e+07
          2.74575e+07 2.74669e+07 2.77762e+07 2.86423e+07 2.89242e+07 2.89693e+07 2.913e+07 2.92764e+07 2.93268e+07 2.93938e+07 2.98567e+07 3.09062e+07
          3.1613e+07 3.19597e+07 3.16597e+07 2.82538e+07 2.83082e+07 2.85957e+07 2.90596e+07 2.925e+07 2.9297e+07 2.94166e+07 2.952e+07 2.95731e+07
          2.96338e+07 3.02145e+07 3.13297e+07 3.20513e+07 3.23294e+07 3.21542e+07 2.86035e+07 2.86705e+07 2.89093e+07 2.93164e+07 2.9526e+07 2.95754e+07
          2.96744e+07 2.97601e+07 2.98082e+07 2.98664e+07 3.0508e+07 3.17448e+07 3.24852e+07 3.26871e+07 3.28517e+07 2.88791e+07 2.8939e+07 2.91696e+07
          2.95626e+07 2.976e+07 2.98096e+07 2.99024e+07 2.99805e+07 3.00292e+07 3.00952e+07 3.07313e+07 3.2097e+07 3.29123e+07 3.30658e+07 3.35151e+07
          2.91045e+07 2.91748e+07 2.9358e+07 2.97173e+07 2.99632e+07 3.00189e+07 3.01168e+07 3.01974e+07 3.02662e+07 3.03529e+07 3.12571e+07 3.27193e+07
          3.33064e+07 3.34701e+07 3.40275e+07 2.93185e+07 2.93922e+07 2.9554e+07 2.99039e+07 3.01541e+07 3.02162e+07 3.03293e+07 3.0421e+07 3.05131e+07
          3.06153e+07 3.18395e+07 3.33593e+07 3.37161e+07 3.39205e+07 3.45264e+07 2.95096e+07 2.95757e+07 2.97741e+07 3.01431e+07 3.03448e+07 3.04178e+07
          3.05513e+07 3.06579e+07 3.07793e+07 3.09093e+07 3.23289e+07 3.38826e+07 3.41864e+07 3.44182e+07 3.48764e+07 2.96804e+07 2.97425e+07 2.99143e+07
          3.02837e+07 3.05451e+07 3.06202e+07 3.07712e+07 3.0896e+07 3.10458e+07 3.12242e+07 3.2873e+07 3.43338e+07 3.46724e+07 3.488e+07 3.51826e+07
        </DataArray>
        <DataArray type="Float32" Name="pressure[1]" NumberOfComponents="1" format="ascii">
          2.11177e+07 2.1132e+07 2.18353e+07 2.25476e+07 2.29377e+07 2.33429e+07 2.34691e+07 2.35161e+07 2.35739e+07 2.3637e+07 2.38062e+07 2.40863e+07
          2.42939e+07 2.48836e+07 2.56068e+07 2.11633e+07 2.11788e+07 2.19534e+07 2.27003e+07 2.3116e+07 2.35216e+07 2.36141e+07 2.36509e+07 2.371e+07
          2.37803e+07 2.40128e+07 2.42953e+07 2.44665e+07 2.50774e+07 2.57721e+07 2.12618e+07 2.13091e+07 2.20589e+07 2.28502e+07 2.32239e+07 2.36046e+07
          2.37154e+07 2.3768e+07 2.38434e+07 2.39371e+07 2.42482e+07 2.4567e+07 2.47424e+07 2.53151e+07 2.59798e+07 2.1391e+07 2.14376e+07 2.1914e+07
          2.29858e+07 2.33629e+07 2.37322e+07 2.38326e+07 2.38798e+07 2.39908e+07 2.41301e+07 2.45413e+07 2.49204e+07 2.5099e+07 2.55977e+07 2.62369e+07
          2.15229e+07 2.15448e+07 1.98105e+07 2.3086e+07 2.35726e+07 2.39547e+07 2.40192e+07 2.4054e+07 2.42232e+07 2.44713e+07 2.4903e+07 2.52602e+07
          2.54463e+07 2.59168e+07 2.649e+07 2.17294e+07 2.17723e+07 2.24441e+07 2.36493e+07 2.39708e+07 2.42158e+07 2.42583e+07 2.42935e+07 2.45108e+07
          2.48991e+07 2.53356e+07 2.55675e+07 2.57687e+07 2.62368e+07 2.67733e+07 2.19976e+07 2.20489e+07 2.32056e+07 2.41157e+07 2.43209e+07 2.44848e+07
          2.45241e+07 2.4557e+07 2.47665e+07 2.52988e+07 2.5732e+07 2.58396e+07 2.60319e+07 2.65829e+07 2.7166e+07 2.23861e+07 2.24422e+07 2.35962e+07
          2.44499e+07 2.46358e+07 2.47504e+07 2.47766e+07 2.4797e+07 2.50655e+07 2.56257e+07 2.60005e+07 2.6088e+07 2.63447e+07 2.69426e+07 2.7707e+07
          2.29527e+07 2.30171e+07 2.39357e+07 2.4724e+07 2.49454e+07 2.50403e+07 2.50929e+07 2.5235e+07 2.5538e+07 2.60408e+07 2.62881e+07 2.63315e+07
          2.65926e+07 2.73535e+07 2.82485e+07 2.36398e+07 2.37452e+07 2.42323e+07 2.48232e+07 2.52144e+07 2.52968e+07 2.54122e+07 2.58256e+07 2.60801e+07
          2.64592e+07 2.66413e+07 2.66803e+07 2.69588e+07 2.77713e+07 2.85731e+07 2.44116e+07 2.45273e+07 2.47856e+07 2.51538e+07 2.54424e+07 2.55023e+07
          2.5683e+07 2.63944e+07 2.66049e+07 2.68553e+07 2.70077e+07 2.70597e+07 2.73045e+07 2.81234e+07 2.88141e+07 2.51669e+07 2.52369e+07 2.53459e+07
          2.55215e+07 2.56663e+07 2.57012e+07 2.59517e+07 2.69851e+07 2.71197e+07 2.72686e+07 2.73874e+07 2.74561e+07 2.77142e+07 2.84824e+07 2.90724e+07
          2.57419e+07 2.57889e+07 2.58133e+07 2.59337e+07 2.59895e+07 2.5968e+07 2.64413e+07 2.75361e+07 2.7582e+07 2.77192e+07 2.78362e+07 2.7965e+07
          2.82114e+07 2.88454e+07 2.95949e+07 2.6202e+07 2.6252e+07 2.63053e+07 2.66199e+07 2.68181e+07 2.68779e+07 2.72936e+07 2.81545e+07 2.82094e+07
          2.82537e+07 2.83019e+07 2.84666e+07 2.95424e+07 3.02907e+07 3.00584e+07 2.65703e+07 2.66111e+07 2.68647e+07 2.73407e+07 2.75694e+07 2.77889e+07
          2.80822e+07 2.86759e+07 2.87218e+07 2.87592e+07 2.87921e+07 2.97323e+07 3.06207e+07 3.08087e+07 3.06262e+07 2.68865e+07 2.69613e+07 2.73511e+07
          2.78272e+07 2.83599e+07 2.84519e+07 2.87815e+07 2.90358e+07 2.90881e+07 2.91689e+07 2.94781e+07 3.03599e+07 3.10294e+07 3.13884e+07 3.11653e+07
          2.74575e+07 2.74669e+07 2.77762e+07 2.86423e+07 2.89242e+07 2.89693e+07 2.913e+07 2.92764e+07 2.93268e+07 2.93938e+07 2.98567e+07 3.09062e+07
          3.1613e+07 3.19597e+07 3.16597e+07 2.82538e+07 2.83082e+07 2.85957e+07 2.90596e+07 2.925e+07 2.9297e+07 2.94166e+07 2.952e+07 2.95731e+07
          2.96338e+07 3.02145e+07 3.13297e+07 3.20513e+07 3.23294e+07 3.21542e+07 2.86035e+07 2.86705e+07 2.89093e+07 2.93164e+07 2.9526e+07 2.95754e+07
          2.96744e+07 2.97601e+07 2.98082e+07 2.98664e+07 3.0508e+07 3.17448e+07 3.24852e+07 3.26871e+07 3.28517e+07 2.88791e+07 2.8939e+07 2.91696e+07
          2.95626e+07 2.976e+07 2.98096e+07 2.99024e+07 2.99805e+07 3.00292e+07 3.00952e+07 3.07313e+07 3.2097e+07 3.29123e+07 3.30658e+07 3.35151e+07
          2.91045e+07 2.91748e+07 2.9358e+07 2.97173e+07 2.99632e+07 3.00189e+07 3.01168e+07 3.01974e+07 3.02662e+07 3.03529e+07 3.12571e+07 3.27193e+07
          3.33064e+07 3.34701e+07 3.40275e+07 2.93185e+07 2.93922e+07 2.9554e+07 2.99039e+07 3.01541e+07 3.02162e+07 3.03293e+07 3.0421e+07 3.05131e+07
          3.06153e+07 3.18395e+07 3.33593e+07 3.37161e+07 3.39205e+07 3.45264e+07 2.95096e+07 2.95757e+07 2.97741e+07 3.01431e+07 3.03448e+07 3.04178e+07
          3.05513e+07 3.06579e+07 3.07793e+07 3.09093e+07 3.23289e+07 3.38826e+07 3.41864e+07 3.44182e+07 3.48764e+07 2.96804e+07 2.97425e+07 2.99143e+07
          3.02837e+07 3.05451e+07 3.06202e+07 3.07712e+07 3.0896e+07 3.10458e+07 3.12242e+07 3.2873e+07 3.43338e+07 3.46724e+07 3.488e+07 3.51826e+07
        </DataArray>
        <DataArray type="Float32" Name="pressure[2]" NumberOfComponents="1" format="ascii">
          2.11177e+07 2.1132e+07 2.18353e+07 2.25476e+07 2.29377e+07 2.33429e+07 2.34691e+07 2.35161e+07 2.35739e+07 2.3637e+07 2.38062e+07 2.40863e+07
          2.42939e+07 2.48836e+07 2.56068e+07 2.11633e+07 2.11788e+07 2.19534e+07 2.27003e+07 2.3116e+07 2.35216e+07 2.36141e+07 2.36509e+07 2.371e+07
          2.37803e+07 2.40128e+07 2.42953e+07 2.44665e+07 2.50774e+07 2.57721e+07 2.12618e+07 2.13091e+07 2.20589e+07 2.28502e+07 2.32239e+07 2.36046e+07
          2.37154e+07 2.3768e+07 2.38434e+07 2.39371e+07 2.42482e+07 2.4567e+07 2.47424e+07 2.53151e+07 2.59798e+07 2.1391e+07 2.14376e+07 2.1914e+07
          2.29858e+07 2.33629e+07 2.37322e+07 2.38326e+07 2.38798e+07 2.39908e+07 2.41301e+07 2.45413e+07 2.49204e+07 2.5099e+07 2.55977e+07 2.62369e+07
          2.15229e+07 2.15448e+07 1.98105e+07 2.3086e+07 2.35726e+07 2.39547e+07 2.40192e+07 2.4054e+07 2.42232e+07 2.44713e+07 2.4903e+07 2.52602e+07
          2.54463e+07 2.59168e+07 2.649e+07 2.17294e+07 2.17723e+07 2.24441e+07 2.36493e+07 2.39708e+07 2.42158e+07 2.42583e+07 2.42935e+07 2.45108e+07
          2.48991e+07 2.53356e+07 2.55675e+07 2.57687e+07 2.62368e+07 2.67733e+07 2.19976e+07 2.20489e+07 2.32056e+07 2.41157e+07 2.43209e+07 2.44848e+07
          2.45241e+07 2.4557e+07 2.47665e+07 2.52988e+07 2.5732e+07 2.58396e+07 2.60319e+07 2.65829e+07 2.7166e+07 2.23861e+07 2.24422e+07 2.35962e+07
          2.44499e+07 2.46358e+07 2.47504e+07 2.47766e+07 2.4797e+07 2.50655e+07 2.56257e+07 2.60005e+07 2.6088e+07 2.63447e+07 2.69426e+07 2.7707e+07
          2.29527e+07 2.30171e+07 2.39357e+07 2.4724e+07 2.49454e+07 2.50403e+07 2.50929e+07 2.5235e+07 2.5538e+07 2.60408e+07 2.62881e+07 2.63315e+07
          2.65926e+07 2.73535e+07 2.82485e+07 2.36398e+07 2.37452e+07 2.42323e+07 2.48232e+07 2.52144e+07 2.52968e+07 2.54122e+07 2.58256e+07 2.60801e+07
          2.64592e+07 2.66413e+07 2.66803e+07 2.69588e+07 2.77713e+07 2.85731e+07 2.44116e+07 2.45273e+07 2.47856e+07 2.51538e+07 2.54424e+07 2.55023e+07
          2.5683e+07 2.63944e+07 2.66049e+07 2.68553e+07 2.70077e+07 2.70597e+07 2.73045e+07 2.81234e+07 2.88141e+07 2.51669e+07 2.52369e+07 2.53459e+07
          2.55215e+07 2.56663e+07 2.57012e+07 2.59517e+07 2.69851e+07 2.71197e+07 2.72686e+07 2.73874e+07 2.74561e+07 2.77142e+07 2.84824e+07 2.90724e+07
          2.57419e+07 2.57889e+07 2.58133e+07 2.59337e+07 2.59895e+07 2.5968e+07 2.64413e+07 2.75361e+07 2.7582e+07 2.77192e+07 2.78362e+07 2.7965e+07
          2.82114e+07 2.88454e+07 2.95949e+07 2.6202e+07 2.6252e+07 2.63053e+07 2.66199e+07 2.68181e+07 2.68779e+07 2.72936e+07 2.81545e+07 2.82094e+07
          2.82537e+07 2.83019e+07 2.84666e+07 2.95424e+07 3.02907e+07 3.00584e+07 2.65703e+07 2.66111e+07 2.68647e+07 2.73407e+07 2.75694e+07 2.77889e+07
          2.80822e+07 2.86759e+07 2.87218e+07 2.87592e+07 2.87921e+07 2.97323e+07 3.06207e+07 3.08087e+07 3.06262e+07 2.68865e+07 2.69613e+07 2.73511e+07
          2.78272e+07 2.83599e+07 2.84519e+07 2.87815e+07 2.90358e+07 2.90881e+07 2.91689e+07 2.94781e+07 3.03599e+07 3.10294e+07 3.13884e+07 3.11653e+07
          2.74575e+07 2.74669e+07 2.77762e+07 2.86423e+07 2.89242e+07 2.89693e+07 2.913e+07 2.92764e+07 2.93268e+07 2.93938e+07 2.98567e+07 3.09062e+07
          3.1613e+07 3.19597e+07 3.16597e+07 2.82538e+07 2.83082e+07 2.85957e+07 2.90596e+07 2.925e+07 2.9297e+07 2.94166e+07 2.952e+07 2.95731e+07
          2.96338e+07 3.02145e+07 3.13297e+07 3.20513e+07 3.23294e+07 3.21542e+07 2.86035e+07 2.86705e+07 2.89093e+07 2.93164e+07 2.9526e+07 2.95754e+07
          2.96744e+07 2.97601e+07 2.98082e+07 2.98664e+07 3.0508e+07 3.17448e+07 3.24852e+07 3.26871e+07 3.28517e+07 2.88791e+07 2.8939e+07 2.91696e+07
          2.95626e+07 2.976e+07 2.98096e+07 2.99024e+07 2.99805e+07 3.00292e+07 3.00952e+07 3.07313e+07 3.2097e+07 3.29123e+07 3.30658e+07 3.35151e+07
          2.91045e+07 2.91748e+07 2.9358e+07 2.97173e+07 2.99632e+07 3.00189e+07 3.01168e+07 3.01974e+07 3.02662e+07 3.03529e+07 3.12571e+07 3.27193e+07
          3.33064e+07 3.34701e+07 3.40275e+07 2.93185e+07 2.93922e+07 2.9554e+07 2.99039e+07 3.01541e+07 3.02162e+07 3.03293e+07 3.0421e+07 3.05131e+07
          3.06153e+07 3.18395e+07 3.33593e+07 3.37161e+07 3.39205e+07 3.45264e+07 2.95096e+07 2.95757e+07 2.97741e+07 3.01431e+07 3.03448e+07 3.04178e+07
          3.05513e+07 3.06579e+07 3.07793e+07 3.09093e+07 3.23289e+07 3.38826e+07 3.41864e+07 3.44182e+07 3.48764e+07 2.96804e+07 2.97425e+07 2.99143e+07
          3.02837e+07 3.05451e+07 3.06202e+07 3.07712e+07 3.0896e+07 3.10458e+07 3.12242e+07 3.2873e+07 3.43338e+07 3.46724e+07 3.488e+07 3.51826e+07
        </DataArray>
        <DataArray type="Float32" Name="velocity[0]" NumberOfComponents="1" format="ascii">
          -6.48362e-09 4.9064e-08 1.25215e-10 -5.01334e-09 -3.52223e-10 -1.50222e-09 -6.7652e-10 1.07927e-09 1.6896e-09 -3.59741e-10 -1.7937e-09 -2.4206e-09
          -1.68632e-09 -5.7755e-10 -2.53171e-09 -1.7173e-08 1.37545e-07 2.54259e-10 -2.09791e-08 -4.00266e-11 1.4812e-09 7.21675e-09 5.06526e-09 3.62786e-09
          -2.33009e-09 -3.7443e-09 -1.04084e-08 -6.43124e-09 -1.69553e-09 -6.70729e-09 -1.81788e-08 1.83828e-07 1.06428e-09 1.89619e-10 3.47861e-10 4.06763e-09
          1.21908e-08 8.94322e-09 1.32718e-09 -5.90901e-09 -4.3808e-09 -2.60492e-08 -9.17606e-09 -3.56008e-09 -1.00489e-08 -1.30817e-08 1.94905e-07 7.69424e-09
          8.54678e-08 -2.01458e-09 -1.0982e-08 -9.67788e-09 -3.57787e-09 -4.72725e-09 -1.28067e-08 -5.53565e-09 -4.44568e-08 -6.50977e-09 -5.22072e-09 -1.3728e-08
          -9.68421e-08 -3.30751e-08 -3.0931e-10 -1.37103e-07 -1.60186e-08 -6.35495e-08 -7.12287e-08 -5.60322e-08 -7.06702e-09 -1.30078e-08 -7.8054e-09 -7.48264e-08
          -3.2563e-09 -4.77791e-09 -1.69457e-08 -1.921e-07 -2.40599e-07 -8.70756e-09 -2.87001e-07 -3.43671e-08 -1.90613e-07 -1.07578e-07 -1.54399e-07 -4.5812e-09
          -5.68933e-09 -1.17102e-08 -1.08395e-07 -1.89655e-09 -3.7982e-09 -1.91227e-08 -1.92476e-07 -2.07826e-07 -2.53212e-09 -9.36308e-08 -3.25783e-08 -3.34788e-07
          -8.66445e-08 -2.56961e-07 -3.36781e-09 -2.41326e-09 -1.43163e-08 -1.31639e-07 -1.67106e-09 -3.75889e-09 -2.06404e-08 -1.73962e-07 -1.88972e-07 -2.01297e-09
          -1.57719e-08 -2.06304e-08 -4.35937e-07 -5.68402e-08 -2.58393e-07 -4.11549e-09 -2.13911e-09 -1.65543e-08 -1.49264e-07 -1.40746e-09 -3.90373e-09 -2.23584e-08
          -1.55955e-07 -1.6888e-07 -2.48447e-09 -2.37881e-09 -1.46892e-08 -4.7696e-07 -2.71953e-08 -2.56011e-07 -4.4368e-09 -2.66445e-09 -2.88238e-08 -1.47026e-07
          -1.36455e-09 -3.56227e-09 -2.46233e-08 -1.26952e-07 -1.55962e-07 -9.11984e-09 -5.1952e-10 -1.09245e-08 -4.52799e-07 -8.56333e-09 -3.50233e-07 -4.61741e-09
          -3.02766e-09 -4.99295e-08 -1.27413e-07 -2.26023e-09 -3.03521e-09 -2.6884e-08 -9.37708e-08 -1.4924e-07 -2.04574e-08 -1.42436e-09 -1.04474e-08 -4.15172e-07
          -2.87005e-09 -4.27961e-07 -1.04983e-08 -4.42315e-09 -6.43352e-08 -1.06441e-07 -6.05604e-09 -3.45979e-09 -2.89293e-08 -7.53888e-08 -1.43682e-07 -2.84539e-08
          -1.21107e-09 -1.90415e-08 -3.74613e-07 -2.24885e-09 -3.94388e-07 -4.46e-08 -8.70394e-09 -6.92723e-08 -7.97072e-08 -2.02046e-08 -6.13033e-09 -3.11774e-08
          -6.99056e-08 -1.48082e-07 -2.60882e-08 -3.24253e-09 -5.28807e-08 -2.83455e-07 -3.89622e-09 -3.69452e-07 -7.22085e-08 -2.05728e-08 -6.49989e-08 -4.06569e-08
          -3.36599e-08 -1.75867e-08 -3.41581e-08 -6.85553e-08 -1.56857e-07 -1.5814e-08 -6.97243e-09 -8.37994e-08 -2.01657e-07 -4.95724e-09 -4.05565e-07 -7.89603e-08
          -2.99919e-08 -5.27233e-08 -1.23857e-08 -3.6021e-08 -3.4957e-08 -3.46899e-08 -7.121e-08 -1.43251e-07 -8.77351e-09 -8.39991e-09 -6.75558e-08 -2.15325e-07
          -3.40822e-09 -4.16884e-07 -9.48553e-08 -3.17874e-08 -3.40409e-08 -6.14996e-09 -3.64037e-08 -5.05342e-08 -3.14752e-08 -5.62571e-08 -1.35778e-07 -6.67819e-09
          -9.35092e-09 -4.68726e-08 -2.48875e-07 -2.66118e-09 -3.83287e-07 -1.05911e-07 -3.47731e-08 -1.36493e-08 -7.12955e-09 -4.1989e-08 -7.23821e-08 -2.66796e-08
          -5.49179e-08 -1.01343e-07 -8.77891e-09 -1.04371e-08 -6.1765e-08 -2.27351e-07 -3.93602e-09 -3.13109e-07 -1.09913e-07 -5.10565e-08 -4.40149e-09 -6.02661e-09
          -3.44e-08 -1.06538e-07 -2.129e-08 -7.18352e-08 -4.98329e-08 -7.47782e-09 -6.36074e-09 -9.16151e-08 -1.65437e-07 -5.53817e-09 -2.46978e-07 -1.2315e-07
          -8.0831e-08 -2.90972e-09 -3.94438e-09 -2.21806e-08 -1.38799e-07 -1.66778e-08 -6.63478e-08 -3.33139e-08 -3.71495e-09 -2.14926e-09 -1.11424e-07 -1.04864e-07
          -5.8315e-09 -1.82905e-07 -1.26935e-07 -1.32033e-07 -1.67702e-09 -3.23004e-09 -2.89183e-08 -1.58455e-07 -1.46493e-08 -5.60514e-08 -2.27652e-08 -2.17606e-09
          -8.52596e-10 -1.15973e-07 -5.86884e-08 -4.83084e-09 -1.35736e-07 -8.375e-08 -2.35153e-07 -2.99404e-09 -4.6058e-09 -4.29765e-08 -1.6799e-07 -1.58123e-08
          -4.30912e-08 -1.5252e-08 -1.71732e-09 -1.96817e-10 -1.06129e-07 -3.01723e-08 -4.11105e-09 -1.0778e-07 -3.5594e-08 -3.30229e-07 -4.72892e-09 -8.49869e-09
          -5.22687e-08 -1.75547e-07 -1.82108e-08 -2.71304e-08 -7.7723e-09 -2.59486e-09 -9.84764e-10 -7.77625e-08 -2.03281e-08 -4.0438e-09 -1.03768e-07 -1.95466e-08
          -3.51125e-07 -4.31927e-09 -1.63284e-08 -5.72194e-08 -1.83258e-07 -2.26301e-08 -1.26627e-08 -3.10285e-09 -1.16052e-09 -6.46073e-10 -3.86845e-08 -1.51668e-08
          -3.34616e-09 -1.11171e-07 -1.58883e-08 -3.03575e-07 -5.99823e-09 -2.81548e-08 -7.50812e-08 -1.90963e-07 -2.95772e-08 -3.35363e-09 -6.97851e-10 2.59625e-10
          1.01077e-10 -9.13643e-09 -5.79065e-09 -1.23053e-09 -5.69854e-08 -7.42389e-09 -1.3146e-07 -3.95879e-09 -1.70818e-08 -4.48458e-08 -9.81549e-08 -1.66127e-08
        </DataArray>
        <DataArray type="Float32" Name="velocity[1]" NumberOfComponents="1" format="ascii">
          1.00763e-24 7.758e-24 1.38098e-25 -7.79132e-25 5.47395e-26 0 1.05139e-25 -1.07279e-25 9.23298e-26 5.36061e-24 -3.53369e-24 6.28903e-26
          2.27277e-24 -8.79885e-25 3.92715e-25 6.53621e-25 6.01982e-24 1.35412e-25 -1.70214e-24 -2.27781e-25 7.39674e-24 9.8168e-25 2.08452e-25 -6.97246e-24
          -2.10687e-25 0 -6.20518e-26 6.47945e-26 4.7724e-28 2.55477e-25 -4.97303e-25 -1.04711e-23 -1.89225e-24 4.99201e-24 -2.67406e-25 0
          4.31219e-25 -2.20385e-25 -3.96198e-25 0 6.59487e-24 -1.02329e-23 0 1.05903e-24 -2.65664e-25 -5.46167e-25 1.38312e-23 -1.70221e-24
          -8.40212e-24 4.60852e-25 1.07239e-23 -2.0422e-23 2.53587e-23 -3.55964e-24 1.16248e-24 3.16523e-24 -4.21024e-24 2.94561e-24 -1.23548e-24 9.24725e-25
          -1.20574e-25 -7.21702e-23 6.68059e-24 1.22766e-23 -5.55127e-25 -6.53506e-24 2.02846e-25 -1.27855e-25 -7.08553e-26 -5.80344e-24 3.78619e-24 -6.84825e-24
          -3.62111e-28 1.20494e-25 -1.41284e-24 -1.58639e-25 7.667e-24 -7.04213e-25 8.84743e-24 2.38099e-25 -1.41544e-23 0 -1.78884e-25 -2.99055e-26
          3.98683e-25 -3.56301e-25 5.07956e-24 -1.391e-24 8.22638e-25 1.41071e-24 -1.25209e-24 1.52031e-24 0 1.09179e-23 -1.11058e-24 -2.40464e-23
          -2.41871e-25 -1.14185e-25 -2.91e-24 -5.04094e-27 -2.99843e-28 -5.77547e-28 3.68277e-26 -6.49252e-28 -1.55905e-24 -2.08813e-25 1.38732e-23 1.59813e-24
          3.05474e-24 -1.20632e-25 2.36305e-23 -1.94654e-25 -2.64594e-26 -1.98357e-25 -6.51535e-26 -3.46699e-24 -1.11553e-23 -5.92165e-28 -3.5639e-25 1.82605e-24
          -1.56906e-24 -9.71835e-24 -1.24864e-25 -2.03826e-24 -3.38903e-25 3.95553e-24 0 0 -9.41394e-25 6.52079e-28 1.10852e-24 2.53356e-24
          -1.07585e-27 4.90437e-26 -1.55058e-27 -1.1441e-23 8.33944e-25 1.38371e-24 -1.85328e-25 -2.30934e-24 5.83502e-24 -1.09498e-23 8.53126e-24 9.97221e-25
          -3.91437e-26 -9.19663e-25 2.76459e-24 -8.15115e-25 0 -2.0007e-24 4.52522e-24 1.13129e-25 7.68736e-25 -1.33993e-25 1.65884e-24 2.00884e-27
          -7.56023e-24 7.1067e-24 8.36422e-25 1.7821e-25 7.23652e-25 7.36504e-24 2.00313e-24 -2.85781e-25 1.4289e-25 -5.43197e-24 7.91903e-25 -4.80852e-25
          -3.28266e-26 5.29494e-25 -2.72817e-23 4.44425e-26 -8.76612e-24 -3.91805e-24 -4.87141e-25 -1.37781e-24 3.91569e-24 -1.84702e-24 1.05535e-24 -2.10075e-25
          5.43039e-24 1.09807e-23 0 -3.00619e-25 4.08885e-24 1.0523e-23 2.16397e-25 4.89532e-24 1.72844e-25 1.89754e-28 -4.61672e-24 -1.46319e-24
          4.12728e-25 -6.36027e-25 -2.84771e-27 -2.10068e-25 1.68567e-27 7.38291e-25 -5.57382e-25 3.00255e-27 1.65137e-23 -4.28085e-26 7.2125e-25 5.90852e-24
          -5.76438e-25 4.61695e-24 3.41425e-24 -4.99377e-24 3.82352e-28 -2.60707e-24 -5.22109e-24 -9.91986e-24 -6.1858e-28 6.81325e-25 -3.23912e-24 1.09303e-27
          -1.94052e-25 -1.21008e-24 1.00113e-24 0 0 4.61698e-25 4.19457e-24 -5.25203e-25 4.89355e-24 0 -1.25907e-24 0
          -8.29123e-25 2.54432e-26 4.76909e-28 7.79532e-26 -6.26174e-24 8.96014e-28 6.28399e-28 4.26963e-28 4.66161e-24 6.80136e-28 -1.37282e-24 -2.28069e-24
          5.85171e-28 6.60974e-24 -1.75479e-27 3.30421e-26 2.29063e-24 -1.12986e-23 0 -1.19611e-23 0 -4.5421e-28 3.34337e-24 -4.14594e-24
          -1.94094e-24 -6.17217e-29 1.44466e-24 0 4.56956e-24 0 7.9345e-25 2.84496e-24 4.81552e-24 1.2785e-25 -5.63231e-24 -5.36094e-24
          -2.38812e-24 2.00899e-25 6.5339e-26 2.85941e-28 -1.91569e-24 -1.14726e-24 4.78381e-24 -2.16679e-24 2.56893e-24 -2.29032e-24 7.29787e-25 1.01633e-23
          -8.22688e-26 -4.32519e-24 1.05209e-23 6.00472e-24 -3.61659e-24 7.84866e-26 1.00501e-24 -2.51001e-28 1.12941e-24 1.5976e-28 -4.28664e-24 9.27112e-25
          -2.04146e-24 -4.50194e-26 -3.1486e-24 -1.45472e-25 -6.01131e-24 -5.39868e-24 1.04571e-23 2.95896e-25 3.86899e-24 1.18014e-24 -3.96781e-25 -9.30794e-25
          -1.1576e-24 7.0205e-25 0 -4.2404e-26 -1.50757e-24 5.18915e-24 -9.11978e-24 9.12136e-24 -6.37139e-24 4.6591e-28 0 0
          2.64039e-25 -5.82127e-28 1.50215e-24 -1.3229e-24 -1.39119e-24 1.28364e-24 -2.16048e-24 -9.4977e-25 -1.45618e-24 2.77483e-26 7.15618e-25 -4.17458e-24
          1.48153e-23 -2.80264e-25 -7.05515e-24 5.05045e-25 1.02605e-24 2.43149e-28 -9.25211e-25 -3.46654e-28 -4.71522e-28 1.30035e-25 -3.17291e-24 5.58147e-25
          -1.37556e-25 1.13718e-23 -4.69917e-24 0 -2.98289e-25 -9.33634e-25 7.18506e-24 -8.31836e-25 0 -5.21569e-25 -3.7052e-28 -4.24632e-25
          7.19462e-25 -1.41912e-24 -2.39648e-24 -3.83681e-25 -2.89551e-24 1.15376e-24 -3.20369e-23 0 3.20312e-23 -2.3486e-23 1.93993e-23 4.87884e-25
        </DataArray>
        <DataArray type="Float32" Name="velocity[2]" NumberOfComponents="1" format="ascii">
          -6.82072e-10 7.16358e-09 -3.81026e-09 -4.34162e-09 -3.14401e-09 -3.1715e-09 -2.87957e-09 -2.55022e-09 -2.52674e-09 -2.9139e-09 -2.97843e-09 -2.77108e-09
          -2.3274e-09 -1.89002e-09 -1.29192e-09 -2.71689e-09 2.29396e-08 -3.13089e-09 -6.19442e-09 -1.88942e-09 -1.78689e-09 -1.15702e-09 -1.81198e-09 -2.1115e-09
          -3.04954e-09 -3.16384e-09 -3.93742e-09 -2.64642e-09 -1.48907e-09 -1.73247e-09 -3.39848e-09 3.16945e-08 -8.87643e-10 -2.60409e-09 -4.05031e-09 -3.19648e-09
          -1.51641e-09 -1.98526e-09 -3.15063e-09 -4.12486e-09 -3.67957e-09 -6.80489e-09 -3.19797e-09 -1.98472e-09 -2.33982e-09 -2.4141e-09 3.3936e-08 2.76133e-10
          1.09585e-08 -6.87363e-09 -7.61659e-09 -6.21096e-09 -4.24774e-09 -3.82182e-09 -4.76097e-09 -3.17479e-09 -9.46318e-09 -2.4295e-09 -2.30214e-09 -3.08272e-09
          -1.13143e-08 1.25119e-09 -1.13764e-09 -3.29341e-08 -1.48017e-08 -2.05512e-08 -1.88156e-08 -1.38861e-08 -4.21226e-09 -5.43914e-09 -4.57493e-09 -1.49663e-08
          -1.08424e-09 -1.54168e-09 -3.40228e-09 -3.31656e-08 -4.21786e-08 -2.85976e-09 -5.84863e-08 -1.96658e-08 -4.26224e-08 -2.39592e-08 -3.07492e-08 -2.7504e-09
          -3.08226e-09 -4.10051e-09 -2.03112e-08 -8.70386e-10 -1.2688e-09 -3.68786e-09 -3.4477e-08 -3.80423e-08 -2.16277e-09 -2.15349e-08 -1.44597e-08 -6.53993e-08
          -1.92442e-08 -4.84382e-08 -2.50356e-09 -2.31678e-09 -4.42555e-09 -2.43917e-08 -7.55306e-10 -1.08012e-09 -3.83447e-09 -3.1205e-08 -3.4821e-08 -2.21537e-09
          -5.03039e-09 -6.51145e-09 -7.77716e-08 -9.18252e-09 -4.62191e-08 -2.45132e-09 -2.04776e-09 -4.44961e-09 -2.73724e-08 -9.7819e-10 -1.45319e-09 -4.32592e-09
          -2.79843e-08 -3.11247e-08 -2.09183e-09 -2.11505e-09 -4.51314e-09 -8.62948e-08 -7.53734e-09 -4.71972e-08 -1.81392e-09 -1.5156e-09 -5.46847e-09 -2.6142e-08
          -9.20102e-10 -1.33046e-09 -4.71901e-09 -2.36619e-08 -3.01424e-08 -3.74479e-09 -1.57299e-09 -3.4286e-09 -8.23876e-08 -5.14035e-09 -6.40516e-08 -1.61405e-09
          -1.29351e-09 -8.87095e-09 -2.25384e-08 -1.12751e-09 -1.26737e-09 -5.12305e-09 -1.73597e-08 -2.80865e-08 -5.0493e-09 -1.25868e-09 -2.80739e-09 -7.49119e-08
          -3.02895e-09 -7.74008e-08 -2.85563e-09 -1.41562e-09 -1.17043e-08 -1.94694e-08 -2.11484e-09 -1.32815e-09 -5.40769e-09 -1.36574e-08 -2.61909e-08 -5.73352e-09
          -6.58161e-10 -3.39561e-09 -6.67891e-08 -2.21665e-09 -7.286e-08 -1.09617e-08 -2.78344e-09 -1.32552e-08 -1.60453e-08 -5.86637e-09 -2.32346e-09 -5.94819e-09
          -1.23258e-08 -2.57688e-08 -4.38439e-09 -7.27331e-10 -7.97878e-09 -5.0389e-08 -4.21437e-09 -6.77986e-08 -1.46116e-08 -5.22411e-09 -1.30621e-08 -1.04328e-08
          -1.03307e-08 -5.74911e-09 -6.56069e-09 -1.21759e-08 -2.77342e-08 -3.1899e-09 -1.96167e-09 -1.51715e-08 -3.63637e-08 -2.35291e-09 -7.2865e-08 -1.4689e-08
          -5.55676e-09 -9.96092e-09 -3.65987e-09 -8.23338e-09 -6.73993e-09 -5.74195e-09 -1.22892e-08 -2.55031e-08 -2.75731e-09 -2.89854e-09 -1.44596e-08 -4.03301e-08
          -1.69794e-09 -7.44625e-08 -1.70175e-08 -5.37089e-09 -6.48399e-09 -2.31348e-09 -7.59071e-09 -8.76769e-09 -4.84446e-09 -1.11835e-08 -2.60636e-08 -2.88529e-09
          -3.28228e-09 -9.82398e-09 -4.51672e-08 -1.47004e-09 -6.96485e-08 -2.16312e-08 -8.8312e-09 -5.5638e-09 -4.90022e-09 -1.06719e-08 -1.33325e-08 -3.80412e-09
          -8.50892e-09 -1.76468e-08 -3.27571e-09 -3.40526e-09 -1.16833e-08 -4.13687e-08 -3.22532e-09 -5.85193e-08 -2.34276e-08 -1.24184e-08 -3.67225e-09 -4.12487e-09
          -1.00733e-08 -2.0304e-08 -2.8518e-09 -1.27137e-08 -9.32927e-09 -2.59736e-09 -2.88115e-09 -1.72953e-08 -3.11187e-08 -4.52895e-09 -4.80312e-08 -2.64364e-08
          -1.76252e-08 -3.31152e-09 -3.54756e-09 -6.7578e-09 -2.52491e-08 -2.30072e-09 -1.20161e-08 -6.88856e-09 -2.08773e-09 -1.86936e-09 -2.09065e-08 -2.071e-08
          -4.47198e-09 -3.64525e-08 -2.7833e-08 -2.78063e-08 -3.42393e-09 -3.76529e-09 -7.89438e-09 -2.90832e-08 -2.54332e-09 -1.02494e-08 -4.8984e-09 -1.51254e-09
          -1.42098e-09 -2.17753e-08 -1.26272e-08 -4.08807e-09 -2.76992e-08 -2.1132e-08 -4.72218e-08 -3.47242e-09 -3.52318e-09 -9.67022e-09 -3.08402e-08 -3.21332e-09
          -8.09508e-09 -3.90872e-09 -1.69354e-09 -1.35724e-09 -2.05406e-08 -8.0506e-09 -3.84821e-09 -2.23651e-08 -1.06721e-08 -6.23202e-08 -3.8226e-09 -4.37724e-09
          -1.18613e-08 -3.25934e-08 -3.58416e-09 -5.3516e-09 -2.65395e-09 -1.8682e-09 -1.53806e-09 -1.60471e-08 -6.98908e-09 -4.18658e-09 -2.16435e-08 -6.82701e-09
          -6.57282e-08 -4.86542e-09 -6.64889e-09 -1.32934e-08 -3.49073e-08 -5.0899e-09 -2.63003e-09 -1.42695e-09 -1.31577e-09 -1.4136e-09 -9.2526e-09 -6.3621e-09
          -4.46903e-09 -2.34312e-08 -6.61744e-09 -5.90348e-08 -8.06581e-09 -1.14899e-08 -1.84298e-08 -3.69973e-08 -6.43151e-09 -8.15093e-10 -6.05539e-10 -4.49491e-10
          -4.50464e-10 -2.56213e-09 -2.73023e-09 -2.22958e-09 -1.36135e-08 -6.83934e-09 -3.44145e-08 -1.47711e-08 -1.29348e-08 -1.47488e-08 -2.0577e-08 -3.45259e-09
        </DataArray>
        <DataArray type="Float32" Name="z[0]" NumberOfComponents="1" format="ascii">
          0.150578 0.150579 0.15058 0.150582 0.150582 0.150583 0.150584 0.150585 0.150585 0.150586 0.150587 0.150588
          0.150589 0.150591 0.150596 0.150581 0.150582 0.150583 0.150585 0.150586 0.150587 0.150587 0.150588 0.150588
          0.150589 0.15059 0.150591 0.150593 0.150595 0.150599 0.150584 0.150585 0.150587 0.150588 0.150589 0.15059
          0.15059 0.150591 0.150592 0.150593 0.150593 0.150595 0.150596 0.150598 0.150602 0.150588 0.150589 0.15059
          0.150591 0.150592 0.150593 0.150594 0.150594 0.150595 0.150596 0.150597 0.150598 0.150599 0.150601 0.150605
          0.150591 0.150592 0.150593 0.150594 0.150595 0.150596 0.150597 0.150597 0.150598 0.150599 0.1506 0.150601
          0.150602 0.150604 0.150609 0.150594 0.150595 0.150596 0.150597 0.150598 0.150599 0.1506 0.1506 0.150601
          0.150602 0.150603 0.150604 0.150605 0.150607 0.150612 0.150597 0.150598 0.150599 0.150601 0.150601 0.150602