<?xml version="1.0"?>
<VTKFile type="UnstructuredGrid" version="0.1" byte_order="LittleEndian">
  <UnstructuredGrid>
    <Piece NumberOfCells="360" NumberOfPoints="800">
      <CellData Scalars="pressure[0]">
        <DataArray type="Float32" Name="pressure[0]" NumberOfComponents="1" format="ascii">
          2.08557e+07 2.08702e+07 2.13632e+07 2.18885e+07 2.22793e+07 2.27445e+07 2.28944e+07 2.2948e+07 2.3013e+07 2.30839e+07 2.33054e+07 2.36743e+07
          2.39484e+07 2.46162e+07 2.53896e+07 2.08994e+07 2.09139e+07 2.14564e+07 2.20008e+07 2.24337e+07 2.29262e+07 2.30374e+07 2.30787e+07 2.31464e+07
          2.32287e+07 2.35468e+07 2.39227e+07 2.41388e+07 2.48159e+07 2.55571e+07 2.09432e+07 2.09577e+07 2.15248e+07 2.21373e+07 2.25209e+07 2.29842e+07
          2.31205e+07 2.31834e+07 2.3276e+07 2.33946e+07 2.38345e+07 2.42706e+07 2.44682e+07 2.5076e+07 2.57712e+07 2.09875e+07 2.10024e+07 2.1398e+07
          2.22677e+07 2.26415e+07 2.30882e+07 2.32136e+07 2.32708e+07 2.34258e+07 2.36283e+07 2.42208e+07 2.46931e+07 2.48697e+07 2.5381e+07 2.60386e+07
          2.10758e+07 2.11014e+07 1.97715e+07 2.23581e+07 2.28082e+07 2.33048e+07 2.33905e+07 2.3459e+07 2.37312e+07 2.41487e+07 2.46812e+07 2.50921e+07
          2.52643e+07 2.57229e+07 2.63004e+07 2.12688e+07 2.13119e+07 2.17918e+07 2.27432e+07 2.33834e+07 2.39517e+07 2.40167e+07 2.40756e+07 2.43199e+07
          2.47388e+07 2.51994e+07 2.54427e+07 2.56278e+07 2.60675e+07 2.65936e+07 2.15133e+07 2.15628e+07 2.23985e+07 2.32702e+07 2.40177e+07 2.45728e+07
          2.46536e+07 2.47392e+07 2.4882e+07 2.52981e+07 2.56494e+07 2.57454e+07 2.59229e+07 2.64378e+07 2.70016e+07 2.1861e+07 2.19144e+07 2.2941e+07
          2.3811e+07 2.46504e+07 2.51451e+07 2.52041e+07 2.52618e+07 2.53986e+07 2.5717e+07 2.59405e+07 2.60107e+07 2.62513e+07 2.68163e+07 2.75649e+07
          2.2364e+07 2.2426e+07 2.34217e+07 2.42806e+07 2.53145e+07 2.56491e+07 2.57588e+07 2.58669e+07 2.59608e+07 2.61356e+07 2.62354e+07 2.62627e+07
          2.65121e+07 2.72394e+07 2.81256e+07 2.29758e+07 2.30764e+07 2.37193e+07 2.43529e+07 2.58601e+07 2.60883e+07 2.633e+07 2.65498e+07 2.65576e+07
          2.65638e+07 2.65873e+07 2.66152e+07 2.68794e+07 2.76613e+07 2.84582e+07 2.38825e+07 2.40165e+07 2.43317e+07 2.47749e+07 2.62399e+07 2.64073e+07
          2.67917e+07 2.71177e+07 2.70195e+07 2.69666e+07 2.69407e+07 2.69797e+07 2.72057e+07 2.80073e+07 2.87081e+07 2.45599e+07 2.46242e+07 2.48701e+07
          2.52525e+07 2.66066e+07 2.6718e+07 2.72593e+07 2.76946e+07 2.7736e+07 2.7345e+07 2.72985e+07 2.73442e+07 2.75887e+07 2.83738e+07 2.94786e+07
          2.53071e+07 2.54794e+07 2.55324e+07 2.58883e+07 2.71339e+07 2.72483e+07 2.78285e+07 2.83318e+07 2.84313e+07 2.83831e+07 2.83057e+07 2.85247e+07
          2.90543e+07 2.99806e+07 3.01945e+07 2.63974e+07 2.64474e+07 2.62988e+07 2.66814e+07 2.79963e+07 2.81106e+07 2.85904e+07 2.89661e+07 2.90366e+07
          2.91129e+07 2.91697e+07 2.96536e+07 3.03257e+07 3.08637e+07 3.06267e+07 2.7198e+07 2.71986e+07 2.7241e+07 2.83377e+07 2.88562e+07 2.89206e+07
          2.92377e+07 2.94655e+07 2.95171e+07 2.95978e+07 2.97551e+07 3.05279e+07 3.11284e+07 3.13038e+07 3.11423e+07 2.79015e+07 2.79226e+07 2.80201e+07
          2.91136e+07 2.93619e+07 2.94172e+07 2.96408e+07 2.97873e+07 2.98369e+07 2.99117e+07 3.02094e+07 3.09468e+07 3.14949e+07 3.18054e+07 3.16284e+07
          2.86268e+07 2.86764e+07 2.90567e+07 2.96465e+07 2.97711e+07 2.9809e+07 2.99233e+07 3.00242e+07 3.00723e+07 3.01358e+07 3.05316e+07 3.14099e+07
          3.20011e+07 3.23041e+07 3.20731e+07 2.92101e+07 2.927e+07 2.96455e+07 2.99293e+07 3.00534e+07 3.00974e+07 3.01866e+07 3.0262e+07 3.03121e+07
          3.03701e+07 3.0857e+07 3.17858e+07 3.239e+07 3.26372e+07 3.25158e+07 2.95256e+07 2.95921e+07 2.98136e+07 3.01344e+07 3.02999e+07 3.03475e+07
          3.04261e+07 3.04928e+07 3.05388e+07 3.05946e+07 3.11303e+07 3.21572e+07 3.27762e+07 3.29608e+07 3.3127e+07 2.97776e+07 2.98363e+07 3.00349e+07
          3.03539e+07 3.05169e+07 3.05651e+07 3.06416e+07 3.0705e+07 3.07514e+07 3.08136e+07 3.13445e+07 3.24767e+07 3.31569e+07 3.33016e+07 3.37081e+07
          2.9989e+07 3.00557e+07 3.02134e+07 3.05084e+07 3.0711e+07 3.07641e+07 3.08467e+07 3.09141e+07 3.09766e+07 3.10554e+07 3.18066e+07 3.3018e+07
          3.35105e+07 3.36636e+07 3.41613e+07 3.01914e+07 3.02606e+07 3.04011e+07 3.06892e+07 3.08956e+07 3.09542e+07 3.10504e+07 3.11278e+07 3.12094e+07
          3.13005e+07 3.23149e+07 3.35739e+07 3.38771e+07 3.40637e+07 3.46027e+07 3.03758e+07 3.0439e+07 3.06083e+07 3.09118e+07 3.10803e+07 3.11478e+07
          3.12614e+07 3.13517e+07 3.14573e+07 3.15713e+07 3.27466e+07 3.40337e+07 3.42935e+07 3.45028e+07 3.49201e+07 3.05441e+07 3.06042e+07 3.07527e+07
          3.10569e+07 3.1273e+07 3.13422e+07 3.14704e+07 3.15757e+07 3.17051e+07 3.1859e+07 3.32229e+07 3.44339e+07 3.47225e+07 3.4912e+07 3.5201e+07
        </DataArray>
        <DataArray type="Float32" Name="pressure[1]" NumberOfComponents="1" format="ascii">
          2.08557e+07 2.08702e+07 2.13632e+07 2.18885e+07 2.22793e+07 2.27445e+07 2.28944e+07 2.2948e+07 2.3013e+07 2.30839e+07 2.33054e+07 2.36743e+07
          2.39484e+07 2.46162e+07 2.53896e+07 2.08994e+07 2.09139e+07 2.14564e+07 2.20008e+07 2.24337e+07 2.29262e+07 2.30374e+07 2.30787e+07 2.31464e+07
          2.32287e+07 2.35468e+07 2.39227e+07 2.41388e+07 2.48159e+07 2.55571e+07 2.09432e+07 2.09577e+07 2.15248e+07 2.21373e+07 2.25209e+07 2.29842e+07
          2.31205e+07 2.31834e+07 2.3276e+07 2.33946e+07 2.38345e+07 2.42706e+07 2.44682e+07 2.5076e+07 2.57712e+07 2.09875e+07 2.10024e+07 2.1398e+07
          2.22677e+07 2.26415e+07 2.30882e+07 2.32136e+07 2.32708e+07 2.34258e+07 2.36283e+07 2.42208e+07 2.46931e+07 2.48697e+07 2.5381e+07 2.60386e+07
          2.10758e+07 2.11014e+07 1.97715e+07 2.23581e+07 2.28082e+07 2.33048e+07 2.33905e+07 2.3459e+07 2.37312e+07 2.41487e+07 2.46812e+07 2.50921e+07
          2.52643e+07 2.57229e+07 2.63004e+07 2.12688e+07 2.13119e+07 2.17918e+07 2.27432e+07 2.33834e+07 2.39517e+07 2.40167e+07 2.40756e+07 2.43199e+07
          2.47388e+07 2.51994e+07 2.54427e+07 2.56278e+07 2.60675e+07 2.65936e+07 2.15133e+07 2.15628e+07 2.23985e+07 2.32702e+07 2.40177e+07 2.45728e+07
          2.46536e+07 2.47392e+07 2.4882e+07 2.52981e+07 2.56494e+07 2.57454e+07 2.59229e+07 2.64378e+07 2.70016e+07 2.1861e+07 2.19144e+07 2.2941e+07
          2.3811e+07 2.46504e+07 2.51451e+07 2.52041e+07 2.52618e+07 2.53986e+07 2.5717e+07 2.59405e+07 2.60107e+07 2.62513e+07 2.68163e+07 2.75649e+07
          2.2364e+07 2.2426e+07 2.34217e+07 2.42806e+07 2.53145e+07 2.56491e+07 2.57588e+07 2.58669e+07 2.59608e+07 2.61356e+07 2.62354e+07 2.62627e+07
          2.65121e+07 2.72394e+07 2.81256e+07 2.29758e+07 2.30764e+07 2.37193e+07 2.43529e+07 2.58601e+07 2.60883e+07 2.633e+07 2.65498e+07 2.65576e+07
          2.65638e+07 2.65873e+07 2.66152e+07 2.68794e+07 2.76613e+07 2.84582e+07 2.38825e+07 2.40165e+07 2.43317e+07 2.47749e+07 2.62399e+07 2.64073e+07
          2.67917e+07 2.71177e+07 2.70195e+07 2.69666e+07 2.69407e+07 2.69797e+07 2.72057e+07 2.80073e+07 2.87081e+07 2.45599e+07 2.46242e+07 2.48701e+07
          2.52525e+07 2.66066e+07 2.6718e+07 2.72593e+07 2.76946e+07 2.7736e+07 2.7345e+07 2.72985e+07 2.73442e+07 2.75887e+07 2.83738e+07 2.94786e+07
          2.53071e+07 2.54794e+07 2.55324e+07 2.58883e+07 2.71339e+07 2.72483e+07 2.78285e+07 2.83318e+07 2.84313e+07 2.83831e+07 2.83057e+07 2.85247e+07
          2.90543e+07 2.99806e+07 3.01945e+07 2.63974e+07 2.64474e+07 2.62988e+07 2.66814e+07 2.79963e+07 2.81106e+07 2.85904e+07 2.89661e+07 2.90366e+07
          2.91129e+07 2.91697e+07 2.96536e+07 3.03257e+07 3.08637e+07 3.06267e+07 2.7198e+07 2.71986e+07 2.7241e+07 2.83377e+07 2.88562e+07 2.89206e+07
          2.92377e+07 2.94655e+07 2.95171e+07 2.95978e+07 2.97551e+07 3.05279e+07 3.11284e+07 3.13038e+07 3.11423e+07 2.79015e+07 2.79226e+07 2.80201e+07
          2.91136e+07 2.93619e+07 2.94172e+07 2.96408e+07 2.97873e+07 2.98369e+07 2.99117e+07 3.02094e+07 3.09468e+07 3.14949e+07 3.18054e+07 3.16284e+07
          2.86268e+07 2.86764e+07 2.90567e+07 2.96465e+07 2.97711e+07 2.9809e+07 2.99233e+07 3.00242e+07 3.00723e+07 3.01358e+07 3.05316e+07 3.14099e+07
          3.20011e+07 3.23041e+07 3.20731e+07 2.92101e+07 2.927e+07 2.96455e+07 2.99293e+07 3.00534e+07 3.00974e+07 3.01866e+07 3.0262e+07 3.03121e+07
          3.03701e+07 3.0857e+07 3.17858e+07 3.239e+07 3.26372e+07 3.25158e+07 2.95256e+07 2.95921e+07 2.98136e+07 3.01344e+07 3.02999e+07 3.03475e+07
          3.04261e+07 3.04928e+07 3.05388e+07 3.05946e+07 3.11303e+07 3.21572e+07 3.27762e+07 3.29608e+07 3.3127e+07 2.97776e+07 2.98363e+07 3.00349e+07
          3.03539e+07 3.05169e+07 3.05651e+07 3.06416e+07 3.0705e+07 3.07514e+07 3.08136e+07 3.13445e+07 3.24767e+07 3.31569e+07 3.33016e+07 3.37081e+07
          2.9989e+07 3.00557e+07 3.02134e+07 3.05084e+07 3.0711e+07 3.07641e+07 3.08467e+07 3.09141e+07 3.09766e+07 3.10554e+07 3.18066e+07 3.3018e+07
          3.35105e+07 3.36636e+07 3.41613e+07 3.01914e+07 3.02606e+07 3.04011e+07 3.06892e+07 3.08956e+07 3.09542e+07 3.10504e+07 3.11278e+07 3.12094e+07
          3.13005e+07 3.23149e+07 3.35739e+07 3.38771e+07 3.40637e+07 3.46027e+07 3.03758e+07 3.0439e+07 3.06083e+07 3.09118e+07 3.10803e+07 3.11478e+07
          3.12614e+07 3.13517e+07 3.14573e+07 3.15713e+07 3.27466e+07 3.40337e+07 3.42935e+07 3.45028e+07 3.49201e+07 3.05441e+07 3.06042e+07 3.07527e+07
          3.10569e+07 3.1273e+07 3.13422e+07 3.14704e+07 3.15757e+07 3.17051e+07 3.1859e+07 3.32229e+07 3.44339e+07 3.47225e+07 3.4912e+07 3.5201e+07
        </DataArray>
        <DataArray type="Float32" Name="pressure[2]" NumberOfComponents="1" format="ascii">
          2.08557e+07 2.08702e+07 2.13632e+07 2.18885e+07 2.22793e+07 2.27445e+07 2.28944e+07 2.2948e+07 2.3013e+07 2.30839e+07 2.33054e+07 2.36743e+07
          2.39484e+07 2.46162e+07 2.53896e+07 2.08994e+07 2.09139e+07 2.14564e+07 2.20008e+07 2.24337e+07 2.29262e+07 2.30374e+07 2.30787e+07 2.31464e+07
          2.32287e+07 2.35468e+07 2.39227e+07 2.41388e+07 2.48159e+07 2.55571e+07 2.09432e+07 2.09577e+07 2.15248e+07 2.21373e+07 2.25209e+07 2.29842e+07
          2.31205e+07 2.31834e+07 2.3276e+07 2.33946e+07 2.38345e+07 2.42706e+07 2.44682e+07 2.5076e+07 2.57712e+07 2.09875e+07 2.10024e+07 2.1398e+07
          2.22677e+07 2.26415e+07 2.30882e+07 2.32136e+07 2.32708e+07 2.34258e+07 2.36283e+07 2.42208e+07 2.46931e+07 2.48697e+07 2.5381e+07 2.60386e+07
          2.10758e+07 2.11014e+07 1.97715e+07 2.23581e+07 2.28082e+07 2.33048e+07 2.33905e+07 2.3459e+07 2.37312e+07 2.41487e+07 2.46812e+07 2.50921e+07
          2.52643e+07 2.57229e+07 2.63004e+07 2.12688e+07 2.13119e+07 2.17918e+07 2.27432e+07 2.33834e+07 2.39517e+07 2.40167e+07 2.40756e+07 2.43199e+07
          2.47388e+07 2.51994e+07 2.54427e+07 2.56278e+07 2.60675e+07 2.65936e+07 2.15133e+07 2.15628e+07 2.23985e+07 2.32702e+07 2.40177e+07 2.45728e+07
          2.46536e+07 2.47392e+07 2.4882e+07 2.52981e+07 2.56494e+07 2.57454e+07 2.59229e+07 2.64378e+07 2.70016e+07 2.1861e+07 2.19144e+07 2.2941e+07
          2.3811e+07 2.46504e+07 2.51451e+07 2.52041e+07 2.52618e+07 2.53986e+07 2.5717e+07 2.59405e+07 2.60107e+07 2.62513e+07 2.68163e+07 2.75649e+07
          2.2364e+07 2.2426e+07 2.34217e+07 2.42806e+07 2.53145e+07 2.56491e+07 2.57588e+07 2.58669e+07 2.59608e+07 2.61356e+07 2.62354e+07 2.62627e+07
          2.65121e+07 2.72394e+07 2.81256e+07 2.29758e+07 2.30764e+07 2.37193e+07 2.43529e+07 2.58601e+07 2.60883e+07 2.633e+07 2.65498e+07 2.65576e+07
          2.65638e+07 2.65873e+07 2.66152e+07 2.68794e+07 2.76613e+07 2.84582e+07 2.38825e+07 2.40165e+07 2.43317e+07 2.47749e+07 2.62399e+07 2.64073e+07
          2.67917e+07 2.71177e+07 2.70195e+07 2.69666e+07 2.69407e+07 2.69797e+07 2.72057e+07 2.80073e+07 2.87081e+07 2.45599e+07 2.46242e+07 2.48701e+07
          2.52525e+07 2.66066e+07 2.6718e+07 2.72593e+07 2.76946e+07 2.7736e+07 2.7345e+07 2.72985e+07 2.73442e+07 2.75887e+07 2.83738e+07 2.94786e+07
          2.53071e+07 2.54794e+07 2.55324e+07 2.58883e+07 2.71339e+07 2.72483e+07 2.78285e+07 2.83318e+07 2.84313e+07 2.83831e+07 2.83057e+07 2.85247e+07
          2.90543e+07 2.99806e+07 3.01945e+07 2.63974e+07 2.64474e+07 2.62988e+07 2.66814e+07 2.79963e+07 2.81106e+07 2.85904e+07 2.89661e+07 2.90366e+07
          2.91129e+07 2.91697e+07 2.96536e+07 3.03257e+07 3.08637e+07 3.06267e+07 2.7198e+07 2.71986e+07 2.7241e+07 2.83377e+07 2.88562e+07 2.89206e+07
          2.92377e+07 2.94655e+07 2.95171e+07 2.95978e+07 2.97551e+07 3.05279e+07 3.11284e+07 3.13038e+07 3.11423e+07 2.79015e+07 2.79226e+07 2.80201e+07
          2.91136e+07 2.93619e+07 2.94172e+07 2.96408e+07 2.97873e+07 2.98369e+07 2.99117e+07 3.02094e+07 3.09468e+07 3.14949e+07 3.18054e+07 3.16284e+07
          2.86268e+07 2.86764e+07 2.90567e+07 2.96465e+07 2.97711e+07 2.9809e+07 2.99233e+07 3.00242e+07 3.00723e+07 3.01358e+07 3.05316e+07 3.14099e+07
          3.20011e+07 3.23041e+07 3.20731e+07 2.92101e+07 2.927e+07 2.96455e+07 2.99293e+07 3.00534e+07 3.00974e+07 3.01866e+07 3.0262e+07 3.03121e+07
          3.03701e+07 3.0857e+07 3.17858e+07 3.239e+07 3.26372e+07 3.25158e+07 2.95256e+07 2.95921e+07 2.98136e+07 3.01344e+07 3.02999e+07 3.03475e+07
          3.04261e+07 3.04928e+07 3.05388e+07 3.05946e+07 3.11303e+07 3.21572e+07 3.27762e+07 3.29608e+07 3.3127e+07 2.97776e+07 2.98363e+07 3.00349e+07
          3.03539e+07 3.05169e+07 3.05651e+07 3.06416e+07 3.0705e+07 3.07514e+07 3.08136e+07 3.13445e+07 3.24767e+07 3.31569e+07 3.33016e+07 3.37081e+07
          2.9989e+07 3.00557e+07 3.02134e+07 3.05084e+07 3.0711e+07 3.07641e+07 3.08467e+07 3.09141e+07 3.09766e+07 3.10554e+07 3.18066e+07 3.3018e+07
          3.35105e+07 3.36636e+07 3.41613e+07 3.01914e+07 3.02606e+07 3.04011e+07 3.06892e+07 3.08956e+07 3.09542e+07 3.10504e+07 3.11278e+07 3.12094e+07
          3.13005e+07 3.23149e+07 3.35739e+07 3.38771e+07 3.40637e+07 3.46027e+07 3.03758e+07 3.0439e+07 3.06083e+07 3.09118e+07 3.10803e+07 3.11478e+07
          3.12614e+07 3.13517e+07 3.14573e+07 3.15713e+07 3.27466e+07 3.40337e+07 3.42935e+07 3.45028e+07 3.49201e+07 3.05441e+07 3.06042e+07 3.07527e+07
          3.10569e+07 3.1273e+07 3.13422e+07 3.14704e+07 3.15757e+07 3.17051e+07 3.1859e+07 3.32229e+07 3.44339e+07 3.47225e+07 3.4912e+07 3.5201e+07
        </DataArray>
        <DataArray type="Float32" Name="velocity[0]" NumberOfComponents="1" format="ascii">
          1.10004e-12 2.93905e-08 3.04904e-10 3.37819e-09 -1.46975e-10 -1.36487e-09 -3.54841e-10 1.35306e-09 1.87967e-09 -6.73176e-10 -2.12748e-09 -3.11185e-09
          -2.18991e-09 -6.44085e-10 -2.78031e-09 -1.27908e-09 8.47812e-08 6.32322e-10 2.99674e-09 3.16535e-10 2.02076e-09 8.54492e-09 6.06063e-09 3.93586e-09
          -3.1796e-09 -4.42422e-09 -1.29827e-08 -8.05083e-09 -2.0248e-09 -7.36516e-09 -9.6916e-09 1.284e-07 1.19507e-09 3.27285e-08 7.81608e-10 5.60573e-09
          1.52985e-08 1.18069e-08 1.37324e-09 -7.64765e-09 -5.44121e-09 -3.22463e-08 -1.1222e-08 -4.21309e-09 -1.09852e-08 -2.51776e-08 1.62486e-07 6.12998e-09
          1.18581e-07 -4.88549e-10 -6.09756e-09 -1.41759e-09 3.0247e-09 -6.1599e-09 -1.6128e-08 -7.34375e-09 -5.66813e-08 -7.91873e-09 -5.96859e-09 -1.48717e-08
          -9.31949e-08 -1.82354e-08 -7.68632e-11 -2.80113e-08 -5.50777e-09 -4.49017e-08 -5.49742e-08 -5.18934e-08 -1.30612e-08 -1.70975e-08 -1.02874e-08 -9.54591e-08
          -4.00451e-09 -5.41348e-09 -1.81999e-08 -1.61183e-07 -1.96076e-07 -6.53287e-09 -1.77718e-07 -1.19319e-08 -1.12431e-07 -8.0505e-08 -1.14198e-07 -1.35107e-08
          -8.62219e-09 -1.45776e-08 -1.35261e-07 -2.35595e-09 -4.28869e-09 -2.03748e-08 -1.62594e-07 -1.71742e-07 -2.41137e-09 -8.42215e-08 -1.34766e-08 -1.78513e-07
          -5.87528e-08 -1.75921e-07 -1.00757e-08 -3.80479e-09 -1.70989e-08 -1.57196e-07 -1.94797e-09 -4.14114e-09 -2.18472e-08 -1.48372e-07 -1.59118e-07 -2.67751e-09
          -2.56621e-08 -1.15991e-08 -2.16432e-07 -3.48117e-08 -2.55706e-07 -7.1733e-09 -2.58554e-09 -1.83208e-08 -1.67191e-07 -1.54949e-09 -4.16238e-09 -2.35191e-08
          -1.33471e-07 -1.44354e-07 -2.44316e-09 -5.18314e-09 -9.49972e-09 -2.33711e-07 -1.26805e-08 -3.24114e-07 -5.36377e-09 -2.72999e-09 -2.91738e-08 -1.54782e-07
          -1.42451e-09 -3.67544e-09 -2.57558e-08 -1.07171e-07 -1.32183e-07 -8.50663e-09 -7.81125e-10 -6.82935e-09 -2.3591e-07 -4.19791e-09 -3.93702e-07 -4.47184e-09
          -3.11949e-09 -4.80503e-08 -1.24995e-07 -2.13606e-09 -3.01795e-09 -2.80132e-08 -7.71437e-08 -1.19509e-07 -1.95654e-08 -2.0951e-09 -5.91106e-09 -2.31891e-07
          -1.41207e-09 -4.59001e-07 -4.72654e-09 -4.08542e-09 -5.92796e-08 -9.38481e-08 -5.02339e-09 -3.36982e-09 -3.00453e-08 -6.13994e-08 -8.1731e-08 -3.72432e-08
          -1.988e-09 -8.56538e-09 -2.32947e-07 -1.17149e-09 -5.01265e-07 -1.5398e-08 -6.02453e-09 -5.28664e-08 -5.63164e-08 -1.51225e-08 -7.38108e-09 -3.1541e-08
          -4.82321e-08 -6.37229e-08 -4.35664e-08 -4.05628e-09 -1.32888e-08 -2.20025e-07 -1.68325e-09 -5.13637e-07 -4.63373e-08 -7.74683e-09 -3.48037e-08 -2.18129e-08
          -2.94282e-08 -1.46763e-08 -3.2129e-08 -3.95288e-08 -7.98909e-08 -2.88015e-08 -5.30958e-09 -1.96683e-08 -2.04456e-07 -1.72815e-09 -4.85276e-07 -8.11055e-08
          -1.30685e-08 -1.96096e-08 -6.86194e-09 -3.33791e-08 -2.60873e-08 -3.07052e-08 -4.63264e-08 -7.55284e-08 -1.6299e-08 -3.83371e-09 -2.64519e-08 -2.03329e-07
          -1.22882e-09 -4.39496e-07 -9.81264e-08 -2.18796e-08 -1.3156e-08 -3.59558e-09 -3.0677e-08 -4.04765e-08 -2.72857e-08 -5.69626e-08 -5.98655e-08 -8.25054e-09
          -3.43971e-09 -3.25522e-08 -2.01077e-07 -1.53057e-09 -3.73362e-07 -1.02701e-07 -3.10386e-08 -8.12456e-09 -4.86387e-09 -3.45748e-08 -5.93463e-08 -2.28521e-08
          -6.10217e-08 -4.69224e-08 -3.96233e-09 -4.47161e-09 -4.60772e-08 -1.75952e-07 -2.95411e-09 -2.95344e-07 -1.03515e-07 -4.8493e-08 -3.43732e-09 -4.80393e-09
          -2.81847e-08 -8.79192e-08 -1.80751e-08 -5.97761e-08 -3.702e-08 -1.69545e-09 -3.03653e-09 -6.81802e-08 -1.26615e-07 -4.51795e-09 -2.25168e-07 -1.11543e-07
          -7.32433e-08 -2.44976e-09 -3.25113e-09 -1.82918e-08 -1.14805e-07 -1.40597e-08 -5.37195e-08 -2.64095e-08 -1.12497e-09 -1.20984e-09 -8.47354e-08 -8.05585e-08
          -4.75847e-09 -1.6043e-07 -1.11319e-07 -1.14871e-07 -1.42895e-09 -2.67995e-09 -2.39041e-08 -1.31146e-07 -1.22799e-08 -4.44835e-08 -1.77777e-08 -1.36303e-09
          -5.76448e-10 -9.06645e-08 -4.59793e-08 -3.98191e-09 -1.17369e-07 -7.19395e-08 -1.9884e-07 -2.49089e-09 -3.80748e-09 -3.5545e-08 -1.39016e-07 -1.31942e-08
          -3.39761e-08 -1.19842e-08 -1.26901e-09 -1.44217e-10 -8.45881e-08 -2.4144e-08 -3.42422e-09 -9.23176e-08 -3.00831e-08 -2.75718e-07 -3.90404e-09 -7.01164e-09
          -4.3256e-08 -1.45227e-07 -1.5142e-08 -2.13662e-08 -6.11189e-09 -2.02748e-09 -7.79023e-10 -6.26831e-08 -1.64782e-08 -3.35193e-09 -8.70759e-08 -1.63151e-08
          -2.91398e-07 -3.56309e-09 -1.34779e-08 -4.73434e-08 -1.5153e-07 -1.87767e-08 -9.97302e-09 -2.44368e-09 -9.14652e-10 -5.15301e-10 -3.13594e-08 -1.23272e-08
          -2.75259e-09 -9.18422e-08 -1.31453e-08 -2.51016e-07 -4.94429e-09 -2.32411e-08 -6.20259e-08 -1.57816e-07 -2.45007e-08 -2.64241e-09 -5.50674e-10 2.02757e-10
          7.61947e-11 -7.41532e-09 -4.70944e-09 -1.00795e-09 -4.67993e-08 -6.12221e-09 -1.08515e-07 -3.26166e-09 -1.40989e-08 -3.70205e-08 -8.10935e-08 -1.37535e-08
        </DataArray>
        <DataArray type="Float32" Name="velocity[1]" NumberOfComponents="1" format="ascii">
          -1.70959e-28 4.69637e-24 6.57986e-26 5.25011e-25 2.28416e-26 0 5.51464e-26 -1.92178e-25 1.46564e-26 5.95928e-24 -3.82347e-24 2.28964e-26
          2.4552e-24 -9.71536e-25 4.31991e-25 1.99126e-25 3.9374e-24 5.93665e-26 -5.84292e-25 -1.405e-25 7.78957e-24 1.38377e-24 4.46825e-25 -7.46189e-24
          -9.70283e-26 0 -2.33977e-26 2.97508e-26 -1.94307e-27 2.80448e-25 1.10828e-24 -6.19932e-24 -1.38984e-24 5.20496e-24 -1.28911e-25 0
          3.65741e-25 -3.99194e-25 -4.25695e-25 0 7.29318e-24 -1.17282e-23 0 1.12897e-24 -2.82335e-25 2.61647e-24 1.0568e-23 -1.31402e-24
          -1.13992e-23 2.44816e-25 1.03685e-23 -2.36037e-23 2.75495e-23 -4.09251e-24 1.17732e-24 3.80958e-24 -4.73068e-24 2.98161e-24 -1.28759e-24 9.65624e-25
          -9.46923e-26 -6.12909e-23 5.23393e-24 1.21043e-23 -3.86753e-25 -4.51156e-24 5.95557e-26 -1.39055e-25 -4.24006e-25 -6.86148e-24 4.45551e-24 -8.35704e-24
          3.60133e-28 1.33435e-25 -1.51192e-24 -1.21508e-25 6.01395e-24 -4.98357e-25 -7.04526e-25 2.86077e-26 -6.15538e-24 0 -7.01981e-26 2.29669e-25
          5.66842e-25 -3.90199e-25 6.90382e-24 -1.30438e-24 7.73482e-25 1.51182e-24 -9.30604e-25 9.79466e-25 0 6.9796e-24 -1.39812e-25 -1.08233e-23
          1.18152e-26 -3.14614e-26 -2.15448e-24 2.9957e-27 1.27172e-27 7.42597e-29 1.98297e-26 9.82815e-30 -1.65456e-24 -1.70746e-25 1.16716e-23 1.20288e-24
          4.41886e-24 1.14323e-26 1.4172e-23 -3.89729e-26 7.73457e-26 3.43924e-25 1.1371e-27 -2.61592e-24 -1.22386e-23 1.79286e-28 -3.32455e-25 1.9144e-24
          -1.34867e-24 -8.44811e-24 2.73891e-26 -1.3806e-24 -1.86148e-25 2.67282e-24 0 0 1.809e-25 -3.83811e-28 3.55365e-25 4.17257e-24
          1.71835e-28 6.05405e-26 -3.39639e-29 -9.78131e-24 1.08451e-24 1.3059e-24 -2.48552e-25 -2.06817e-24 2.98227e-24 -5.57956e-24 5.87929e-24 -1.00946e-25
          -3.77191e-26 1.19059e-25 3.46355e-24 -7.80509e-25 0 -2.08835e-24 3.73122e-24 1.72338e-25 7.02273e-25 -1.83532e-25 1.90542e-24 -3.97366e-29
          -3.62685e-24 8.55404e-24 7.14997e-26 1.12095e-25 -4.41426e-25 6.95529e-24 1.73855e-24 -2.78387e-25 1.39193e-25 -4.42754e-24 9.23342e-24 -2.02782e-24
          -1.10736e-25 -1.38574e-24 -1.81862e-23 3.02278e-26 2.29859e-24 -3.51167e-24 -1.89278e-25 1.56155e-24 3.28364e-24 -1.78709e-24 1.0243e-24 -9.35931e-26
          3.06749e-24 4.00965e-24 0 -2.67637e-25 4.06773e-25 2.18092e-24 4.97361e-26 -3.68473e-25 -3.22171e-24 2.77739e-28 -1.96292e-24 -7.81564e-25
          1.05389e-24 -8.37181e-25 4.5824e-29 6.64973e-27 -2.5371e-27 8.67271e-25 1.45122e-25 3.02423e-28 1.49856e-23 -4.20673e-26 -4.03326e-24 5.82369e-24
          -9.18271e-25 1.96269e-24 2.03322e-24 -4.19667e-24 -9.98423e-29 -2.2766e-24 -3.07352e-24 -5.21232e-24 4.43327e-27 3.76156e-25 4.69132e-25 7.06666e-28
          -3.52746e-26 -7.56357e-24 1.99358e-24 0 0 2.84862e-25 3.50665e-24 -4.45117e-25 4.24047e-24 0 1.13019e-24 0
          -3.14924e-25 4.7907e-25 5.5885e-28 8.21709e-26 -7.19855e-24 -4.44123e-29 -1.00206e-28 -3.05191e-28 3.73714e-24 -6.67378e-28 -1.11069e-24 -1.96419e-24
          3.00611e-28 8.81673e-25 5.14594e-28 -6.54051e-26 1.62309e-24 -9.22379e-24 0 -9.52045e-24 0 2.41498e-28 2.76511e-24 -3.42925e-24
          -1.57866e-24 3.56784e-28 1.22176e-24 0 3.20549e-24 0 3.8027e-25 1.53163e-24 4.49936e-24 1.03739e-25 -5.97924e-24 -5.11853e-24
          -1.93646e-24 1.63405e-25 4.76815e-26 -9.82015e-29 -1.6001e-24 -9.63276e-25 3.81427e-24 -1.95398e-24 2.11658e-24 -1.71733e-24 7.60883e-25 7.74925e-24
          -6.63814e-26 -4.08152e-24 9.3512e-24 4.93538e-24 -2.96731e-24 6.49381e-26 8.31295e-25 -5.07322e-28 9.45168e-25 1.55278e-28 -3.46411e-24 7.51438e-25
          -1.57335e-24 3.21163e-25 -2.39591e-24 -1.08396e-25 -5.22162e-24 -4.71802e-24 8.51892e-24 2.4222e-25 3.18138e-24 9.77531e-25 -3.21054e-25 -7.84972e-25
          -9.17685e-25 5.51166e-25 0 -3.55625e-26 -1.10498e-24 3.96695e-24 -6.97449e-24 6.97489e-24 -5.11401e-24 1.45778e-27 0 0
          2.20933e-25 -7.15378e-28 1.24789e-24 -1.04204e-24 -1.09596e-24 1.01041e-24 -1.69623e-24 -7.67953e-25 -1.18359e-24 2.07872e-26 4.67951e-25 -3.33831e-24
          1.20645e-23 -2.31244e-25 -5.80501e-24 4.13899e-25 8.45656e-25 -1.75509e-28 -7.28372e-25 -2.62953e-28 -2.34201e-28 1.03161e-25 -2.56901e-24 4.52255e-25
          -1.1449e-25 9.12015e-24 -3.79219e-24 0 -2.454e-25 -7.69944e-25 5.90393e-24 -6.80029e-25 0 -4.10897e-25 -2.30195e-28 -3.34603e-25
          5.67676e-25 -1.15216e-24 -1.92625e-24 -3.14064e-25 -2.46418e-24 9.51464e-25 -2.63388e-23 0 2.63618e-23 -1.93575e-23 1.60105e-23 4.01793e-25
        </DataArray>
        <DataArray type="Float32" Name="velocity[2]" NumberOfComponents="1" format="ascii">
          5.05221e-12 3.76414e-09 -2.78246e-09 -2.37383e-09 -3.10925e-09 -3.22134e-09 -2.95709e-09 -2.67569e-09 -2.72293e-09 -3.24327e-09 -3.31371e-09 -3.14267e-09
          -2.62347e-09 -2.07868e-09 -1.41725e-09 -1.33453e-10 1.38672e-08 -2.20669e-09 -1.55256e-09 -1.83603e-09 -1.76756e-09 -1.07595e-09 -1.84394e-09 -2.31016e-09
          -3.48432e-09 -3.59353e-09 -4.66366e-09 -3.12193e-09 -1.68115e-09 -1.90044e-09 -1.22737e-09 2.27352e-08 -5.87772e-10 3.29927e-09 -3.95019e-09 -3.00193e-09
          -1.15828e-09 -1.76241e-09 -3.4899e-09 -4.78499e-09 -4.20121e-09 -8.09296e-09 -3.64709e-09 -2.19531e-09 -2.54242e-09 -3.87342e-09 2.89574e-08 2.20383e-10
          1.71023e-08 -6.3849e-09 -6.77403e-09 -5.06212e-09 -3.58995e-09 -4.60483e-09 -5.80692e-09 -3.92073e-09 -1.18193e-08 -2.69148e-09 -2.4844e-09 -3.3123e-09
          -1.24152e-08 1.84388e-09 -8.49759e-10 -1.25886e-08 -1.22406e-08 -1.75761e-08 -1.6956e-08 -1.41631e-08 -5.98021e-09 -6.71952e-09 -5.57003e-09 -1.88518e-08
          -1.18392e-09 -1.64967e-09 -3.62834e-09 -2.78148e-08 -3.42864e-08 -2.10811e-09 -3.50171e-08 -8.04389e-09 -2.37802e-08 -1.66777e-08 -2.24793e-08 -4.31181e-09
          -3.68977e-09 -4.73199e-09 -2.50805e-08 -9.02788e-10 -1.32401e-09 -3.8988e-09 -2.90699e-08 -3.12656e-08 -1.55654e-09 -1.81445e-08 -7.91374e-09 -3.58068e-08
          -1.36465e-08 -3.33645e-08 -3.0816e-09 -2.14129e-09 -4.52637e-09 -2.86842e-08 -7.6158e-10 -1.1201e-09 -4.03747e-09 -2.65768e-08 -2.91902e-08 -1.86137e-09
          -6.57285e-09 -4.85078e-09 -4.05208e-08 -8.41459e-09 -4.68223e-08 -2.10068e-09 -1.35839e-09 -4.06394e-09 -3.01846e-08 -9.50943e-10 -1.46314e-09 -4.51987e-09
          -2.39651e-08 -2.65964e-08 -1.87143e-09 -2.66884e-09 -3.79282e-09 -4.30916e-08 -3.99242e-09 -5.82122e-08 -1.20971e-09 -7.80898e-10 -4.81984e-09 -2.71527e-08
          -8.94432e-10 -1.32937e-09 -4.91392e-09 -2.00688e-08 -2.58055e-08 -3.55467e-09 -1.49747e-09 -2.54547e-09 -4.32029e-08 -2.59205e-09 -7.03287e-08 -6.98294e-10
          -4.62741e-10 -7.79795e-09 -2.17697e-08 -1.06684e-09 -1.24638e-09 -5.31906e-09 -1.43041e-08 -2.28015e-08 -5.08473e-09 -1.60265e-09 -2.26485e-09 -4.20858e-08
          -1.45822e-09 -8.14244e-08 -5.59041e-10 -3.89469e-10 -9.95993e-09 -1.68092e-08 -1.86136e-09 -1.29456e-09 -5.59654e-09 -1.10826e-08 -1.64089e-08 -8.91391e-09
          -1.54379e-09 -2.57362e-09 -4.19763e-08 -1.05049e-09 -8.88341e-08 -2.15275e-09 1.61269e-10 -8.58901e-09 -1.11012e-08 -4.70049e-09 -2.26844e-09 -5.76246e-09
          -9.08765e-09 -1.17945e-08 -8.22563e-09 -1.76555e-09 -3.16831e-09 -4.01371e-08 -2.28147e-09 -9.26108e-08 -9.02968e-09 -9.60906e-10 -6.31646e-09 -5.3357e-09
          -6.93114e-09 -3.22657e-09 -5.6578e-09 -6.96598e-09 -1.38783e-08 -5.35835e-09 -1.92806e-09 -4.28238e-09 -3.67319e-08 -1.07049e-09 -8.70194e-08 -1.56138e-08
          -2.58396e-09 -3.9023e-09 -2.20441e-09 -7.26003e-09 -4.91202e-09 -4.94458e-09 -7.71796e-09 -1.28343e-08 -3.2071e-09 -1.45843e-09 -5.33636e-09 -3.63446e-08
          -6.9362e-10 -7.8509e-08 -1.86633e-08 -4.87974e-09 -3.23269e-09 -1.60207e-09 -6.37276e-09 -6.94463e-09 -4.14184e-09 -9.78476e-09 -1.04007e-08 -1.96487e-09
          -1.38785e-09 -6.3265e-09 -3.60035e-08 -9.27603e-10 -6.7715e-08 -2.11279e-08 -8.18919e-09 -4.20961e-09 -3.82181e-09 -8.72733e-09 -1.08455e-08 -3.22142e-09
          -1.07482e-08 -8.5337e-09 -1.31282e-09 -1.45255e-09 -8.2112e-09 -3.1603e-08 -2.12129e-09 -5.45008e-08 -2.1567e-08 -1.14234e-08 -3.01896e-09 -3.3728e-09
          -8.25642e-09 -1.67007e-08 -2.40318e-09 -1.06355e-08 -6.92937e-09 -1.03827e-09 -1.49368e-09 -1.24473e-08 -2.33805e-08 -3.0959e-09 -4.29974e-08 -2.34672e-08
          -1.56872e-08 -2.73865e-09 -2.92241e-09 -5.56625e-09 -2.08512e-08 -1.92483e-09 -9.77971e-09 -5.59295e-09 -1.37877e-09 -1.31595e-09 -1.57818e-08 -1.56787e-08
          -3.21864e-09 -3.13805e-08 -2.39622e-08 -2.39629e-08 -2.82369e-09 -3.10041e-09 -6.51118e-09 -2.40562e-08 -2.12655e-09 -8.14934e-09 -3.86045e-09 -1.13449e-09
          -1.0851e-09 -1.69488e-08 -9.73355e-09 -3.05666e-09 -2.35078e-08 -1.77666e-08 -3.97724e-08 -2.85853e-09 -2.89927e-09 -7.98346e-09 -2.5505e-08 -2.67025e-09
          -6.38487e-09 -3.07813e-09 -1.31845e-09 -1.06104e-09 -1.63191e-08 -6.33992e-09 -2.99181e-09 -1.88923e-08 -8.82828e-09 -5.19484e-08 -3.14406e-09 -3.60131e-09
          -9.79799e-09 -2.6952e-08 -2.97584e-09 -4.21467e-09 -2.08829e-09 -1.4666e-09 -1.20851e-09 -1.28933e-08 -5.59306e-09 -3.33293e-09 -1.80123e-08 -5.5907e-09
          -5.44884e-08 -4.00103e-09 -5.47321e-09 -1.09784e-08 -2.88519e-08 -4.21694e-09 -2.07122e-09 -1.12339e-09 -1.03552e-09 -1.11313e-09 -7.46707e-09 -5.12848e-09
          -3.59566e-09 -1.92779e-08 -5.40816e-09 -4.87653e-08 -6.63288e-09 -9.46135e-09 -1.52016e-08 -3.05621e-08 -5.32259e-09 -6.42207e-10 -4.77234e-10 -3.54562e-10
          -3.55748e-10 -2.06862e-09 -2.20693e-09 -1.80105e-09 -1.11505e-08 -5.59285e-09 -2.83541e-08 -1.21459e-08 -1.06454e-08 -1.21537e-08 -1.69885e-08 -2.8561e-09
        </DataArray>
        <DataArray type="Float32" Name="z[0]" NumberOfComponents="1" format="ascii">
          0.150578 0.150579 0.15058 0.150582 0.150582 0.150583 0.150584 0.150585 0.150585 0.150586 0.150587 0.150588
          0.150589 0.150591 0.150596 0.150581 0.150582 0.150583 0.150585 0.150586 0.150587 0.150587 0.150588 0.150588
          0.150589 0.15059 0.150591 0.150593 0.150595 0.150599 0.150584 0.150585 0.150587 0.150588 0.150589 0.15059
          0.15059 0.150591 0.150592 0.150593 0.150593 0.150595 0.150596 0.150598 0.150602 0.150588 0.150589 0.15059
          0.150591 0.150592 0.150594 0.150594 0.151956 0.150595 0.150596 0.150597 0.150598 0.150599 0.150601 0.150605
          0.150591 0.150592 0.150593 0.150598 0.158112 0.266975 0.31186 0.383391 0.150598 0.150599 0.1506 0.150601
          0.150602 0.150604 0.150609 0.150594 0.150595 0.150596 0.233759 0.410073 0.423584 0.402364 0.397054 0.150601