<?xml version="1.0"?>
<VTKFile type="UnstructuredGrid" version="0.1" byte_order="LittleEndian">
  <UnstructuredGrid>
    <Piece NumberOfCells="360" NumberOfPoints="800">
      <CellData Scalars="pressure[0]">
        <DataArray type="Float32" Name="pressure[0]" NumberOfComponents="1" format="ascii">
          2.09672e+07 2.09818e+07 2.14714e+07 2.19809e+07 2.2348e+07 2.27808e+07 2.29211e+07 2.29723e+07 2.30349e+07 2.31047e+07 2.33187e+07 2.36726e+07
          2.39355e+07 2.45946e+07 2.53599e+07 2.10112e+07 2.10257e+07 2.15677e+07 2.20953e+07 2.25024e+07 2.29559e+07 2.30603e+07 2.31004e+07 2.31658e+07
          2.32467e+07 2.35509e+07 2.39116e+07 2.41211e+07 2.47912e+07 2.55272e+07 2.10553e+07 2.10698e+07 2.16373e+07 2.22315e+07 2.2587e+07 2.30115e+07
          2.31391e+07 2.31997e+07 2.32884e+07 2.34049e+07 2.38244e+07 2.42422e+07 2.44391e+07 2.50459e+07 2.57404e+07 2.10998e+07 2.11149e+07 2.14975e+07
          2.23624e+07 2.26995e+07 2.30984e+07 2.32142e+07 2.32693e+07 2.34171e+07 2.36164e+07 2.4186e+07 2.46515e+07 2.48316e+07 2.5347e+07 2.60068e+07
          2.11938e+07 2.12178e+07 1.97788e+07 2.24574e+07 2.28653e+07 2.32812e+07 2.33585e+07 2.33992e+07 2.3667e+07 2.40793e+07 2.46218e+07 2.50401e+07
          2.52186e+07 2.56864e+07 2.62679e+07 2.13912e+07 2.14341e+07 2.19452e+07 2.29008e+07 2.31392e+07 2.37223e+07 2.37966e+07 2.38559e+07 2.414e+07
          2.46192e+07 2.51256e+07 2.53876e+07 2.55784e+07 2.6029e+07 2.65607e+07 2.1644e+07 2.16938e+07 2.25902e+07 2.34306e+07 2.36888e+07 2.42762e+07
          2.436e+07 2.44454e+07 2.46374e+07 2.51565e+07 2.55848e+07 2.56916e+07 2.58733e+07 2.63987e+07 2.69683e+07 2.20071e+07 2.20612e+07 2.3154e+07
          2.39825e+07 2.42399e+07 2.48272e+07 2.48963e+07 2.49654e+07 2.51542e+07 2.55869e+07 2.58835e+07 2.5962e+07 2.6206e+07 2.67782e+07 2.75315e+07
          2.25351e+07 2.25994e+07 2.36419e+07 2.45106e+07 2.48803e+07 2.53117e+07 2.5445e+07 2.55788e+07 2.5745e+07 2.60388e+07 2.61918e+07 2.62217e+07
          2.64737e+07 2.72048e+07 2.80925e+07 2.31747e+07 2.32817e+07 2.39642e+07 2.47122e+07 2.54174e+07 2.57423e+07 2.60265e+07 2.62983e+07 2.63872e+07
          2.65001e+07 2.65666e+07 2.65942e+07 2.68587e+07 2.76325e+07 2.84253e+07 2.41052e+07 2.42457e+07 2.45486e+07 2.5149e+07 2.57894e+07 2.60615e+07
          2.64996e+07 2.68891e+07 2.69637e+07 2.69546e+07 2.69499e+07 2.69858e+07 2.72064e+07 2.79824e+07 2.86714e+07 2.47622e+07 2.48419e+07 2.50001e+07
          2.53511e+07 2.62622e+07 2.63841e+07 2.69761e+07 2.74519e+07 2.74742e+07 2.73991e+07 2.73509e+07 2.73682e+07 2.7584e+07 2.83338e+07 2.93898e+07
          2.52276e+07 2.52946e+07 2.54282e+07 2.57669e+07 2.68328e+07 2.69458e+07 2.75649e+07 2.80983e+07 2.81867e+07 2.79729e+07 2.78591e+07 2.82588e+07
          2.88825e+07 2.98844e+07 3.01223e+07 2.62225e+07 2.62689e+07 2.61662e+07 2.65202e+07 2.77558e+07 2.78646e+07 2.83665e+07 2.87587e+07 2.88273e+07
          2.88842e+07 2.89055e+07 2.94552e+07 3.0209e+07 3.07885e+07 3.0556e+07 2.70394e+07 2.70391e+07 2.71012e+07 2.81295e+07 2.86553e+07 2.87196e+07
          2.90473e+07 2.92845e+07 2.93365e+07 2.94172e+07 2.95741e+07 3.04035e+07 3.10497e+07 3.12325e+07 3.10751e+07 2.7754e+07 2.77788e+07 2.79221e+07
          2.89362e+07 2.91821e+07 2.92371e+07 2.94685e+07 2.96199e+07 2.96702e+07 2.97471e+07 3.00578e+07 3.08385e+07 3.14191e+07 3.17414e+07 3.15655e+07
          2.84789e+07 2.8526e+07 2.86924e+07 2.94577e+07 2.96033e+07 2.96418e+07 2.97585e+07 2.98617e+07 2.99103e+07 2.99749e+07 3.03901e+07 3.1315e+07
          3.19362e+07 3.22487e+07 3.20149e+07 2.90634e+07 2.91221e+07 2.94739e+07 2.9764e+07 2.98924e+07 2.99364e+07 3.00274e+07 3.01043e+07 3.0155e+07
          3.02136e+07 3.07239e+07 3.16991e+07 3.23323e+07 3.25868e+07 3.24634e+07 2.93771e+07 2.9443e+07 2.96594e+07 2.99783e+07 3.01438e+07 3.01914e+07
          3.02713e+07 3.03393e+07 3.03856e+07 3.04419e+07 3.10024e+07 3.20787e+07 3.27263e+07 3.29153e+07 3.30856e+07 2.96286e+07 2.96872e+07 2.9884e+07
          3.02014e+07 3.0364e+07 3.04121e+07 3.04899e+07 3.05544e+07 3.0601e+07 3.0664e+07 3.12187e+07 3.24038e+07 3.31148e+07 3.32619e+07 3.36778e+07
          2.98399e+07 2.99065e+07 3.00638e+07 3.03579e+07 3.056e+07 3.06133e+07 3.06975e+07 3.07662e+07 3.08296e+07 3.09099e+07 3.16947e+07 3.29614e+07
          3.3475e+07 3.36306e+07 3.41398e+07 3.00423e+07 3.01115e+07 3.02519e+07 3.05398e+07 3.0746e+07 3.0805e+07 3.09035e+07 3.09829e+07 3.10661e+07
          3.11591e+07 3.22184e+07 3.35333e+07 3.38484e+07 3.4039e+07 3.45902e+07 3.02267e+07 3.02899e+07 3.04593e+07 3.07633e+07 3.09321e+07 3.10004e+07
          3.11171e+07 3.12098e+07 3.13182e+07 3.14351e+07 3.26616e+07 3.40046e+07 3.42738e+07 3.4488e+07 3.49128e+07 3.0395e+07 3.04551e+07 3.06039e+07
          3.09092e+07 3.11264e+07 3.11965e+07 3.13283e+07 3.14368e+07 3.157e+07 3.17287e+07 3.31514e+07 3.44141e+07 3.47131e+07 3.49063e+07 3.51979e+07
        </DataArray>
        <DataArray type="Float32" Name="pressure[1]" NumberOfComponents="1" format="ascii">
          2.09672e+07 2.09818e+07 2.14714e+07 2.19809e+07 2.2348e+07 2.27808e+07 2.29211e+07 2.29723e+07 2.30349e+07 2.31047e+07 2.33187e+07 2.36726e+07
          2.39355e+07 2.45946e+07 2.53599e+07 2.10112e+07 2.10257e+07 2.15677e+07 2.20953e+07 2.25024e+07 2.29559e+07 2.30603e+07 2.31004e+07 2.31658e+07
          2.32467e+07 2.35509e+07 2.39116e+07 2.41211e+07 2.47912e+07 2.55272e+07 2.10553e+07 2.10698e+07 2.16373e+07 2.22315e+07 2.2587e+07 2.30115e+07
          2.31391e+07 2.31997e+07 2.32884e+07 2.34049e+07 2.38244e+07 2.42422e+07 2.44391e+07 2.50459e+07 2.57404e+07 2.10998e+07 2.11149e+07 2.14975e+07
          2.23624e+07 2.26995e+07 2.30984e+07 2.32142e+07 2.32693e+07 2.34171e+07 2.36164e+07 2.4186e+07 2.46515e+07 2.48316e+07 2.5347e+07 2.60068e+07
          2.11938e+07 2.12178e+07 1.97788e+07 2.24574e+07 2.28653e+07 2.32812e+07 2.33585e+07 2.33992e+07 2.3667e+07 2.40793e+07 2.46218e+07 2.50401e+07
          2.52186e+07 2.56864e+07 2.62679e+07 2.13912e+07 2.14341e+07 2.19452e+07 2.29008e+07 2.31392e+07 2.37223e+07 2.37966e+07 2.38559e+07 2.414e+07
          2.46192e+07 2.51256e+07 2.53876e+07 2.55784e+07 2.6029e+07 2.65607e+07 2.1644e+07 2.16938e+07 2.25902e+07 2.34306e+07 2.36888e+07 2.42762e+07
          2.436e+07 2.44454e+07 2.46374e+07 2.51565e+07 2.55848e+07 2.56916e+07 2.58733e+07 2.63987e+07 2.69683e+07 2.20071e+07 2.20612e+07 2.3154e+07
          2.39825e+07 2.42399e+07 2.48272e+07 2.48963e+07 2.49654e+07 2.51542e+07 2.55869e+07 2.58835e+07 2.5962e+07 2.6206e+07 2.67782e+07 2.75315e+07
          2.25351e+07 2.25994e+07 2.36419e+07 2.45106e+07 2.48803e+07 2.53117e+07 2.5445e+07 2.55788e+07 2.5745e+07 2.60388e+07 2.61918e+07 2.62217e+07
          2.64737e+07 2.72048e+07 2.80925e+07 2.31747e+07 2.32817e+07 2.39642e+07 2.47122e+07 2.54174e+07 2.57423e+07 2.60265e+07 2.62983e+07 2.63872e+07
          2.65001e+07 2.65666e+07 2.65942e+07 2.68587e+07 2.76325e+07 2.84253e+07 2.41052e+07 2.42457e+07 2.45486e+07 2.5149e+07 2.57894e+07 2.60615e+07
          2.64996e+07 2.68891e+07 2.69637e+07 2.69546e+07 2.69499e+07 2.69858e+07 2.72064e+07 2.79824e+07 2.86714e+07 2.47622e+07 2.48419e+07 2.50001e+07
          2.53511e+07 2.62622e+07 2.63841e+07 2.69761e+07 2.74519e+07 2.74742e+07 2.73991e+07 2.73509e+07 2.73682e+07 2.7584e+07 2.83338e+07 2.93898e+07
          2.52276e+07 2.52946e+07 2.54282e+07 2.57669e+07 2.68328e+07 2.69458e+07 2.75649e+07 2.80983e+07 2.81867e+07 2.79729e+07 2.78591e+07 2.82588e+07
          2.88825e+07 2.98844e+07 3.01223e+07 2.62225e+07 2.62689e+07 2.61662e+07 2.65202e+07 2.77558e+07 2.78646e+07 2.83665e+07 2.87587e+07 2.88273e+07
          2.88842e+07 2.89055e+07 2.94552e+07 3.0209e+07 3.07885e+07 3.0556e+07 2.70394e+07 2.70391e+07 2.71012e+07 2.81295e+07 2.86553e+07 2.87196e+07
          2.90473e+07 2.92845e+07 2.93365e+07 2.94172e+07 2.95741e+07 3.04035e+07 3.10497e+07 3.12325e+07 3.10751e+07 2.7754e+07 2.77788e+07 2.79221e+07
          2.89362e+07 2.91821e+07 2.92371e+07 2.94685e+07 2.96199e+07 2.96702e+07 2.97471e+07 3.00578e+07 3.08385e+07 3.14191e+07 3.17414e+07 3.15655e+07
          2.84789e+07 2.8526e+07 2.86924e+07 2.94577e+07 2.96033e+07 2.96418e+07 2.97585e+07 2.98617e+07 2.99103e+07 2.99749e+07 3.03901e+07 3.1315e+07
          3.19362e+07 3.22487e+07 3.20149e+07 2.90634e+07 2.91221e+07 2.94739e+07 2.9764e+07 2.98924e+07 2.99364e+07 3.00274e+07 3.01043e+07 3.0155e+07
          3.02136e+07 3.07239e+07 3.16991e+07 3.23323e+07 3.25868e+07 3.24634e+07 2.93771e+07 2.9443e+07 2.96594e+07 2.99783e+07 3.01438e+07 3.01914e+07
          3.02713e+07 3.03393e+07 3.03856e+07 3.04419e+07 3.10024e+07 3.20787e+07 3.27263e+07 3.29153e+07 3.30856e+07 2.96286e+07 2.96872e+07 2.9884e+07
          3.02014e+07 3.0364e+07 3.04121e+07 3.04899e+07 3.05544e+07 3.0601e+07 3.0664e+07 3.12187e+07 3.24038e+07 3.31148e+07 3.32619e+07 3.36778e+07
          2.98399e+07 2.99065e+07 3.00638e+07 3.03579e+07 3.056e+07 3.06133e+07 3.06975e+07 3.07662e+07 3.08296e+07 3.09099e+07 3.16947e+07 3.29614e+07
          3.3475e+07 3.36306e+07 3.41398e+07 3.00423e+07 3.01115e+07 3.02519e+07 3.05398e+07 3.0746e+07 3.0805e+07 3.09035e+07 3.09829e+07 3.10661e+07
          3.11591e+07 3.22184e+07 3.35333e+07 3.38484e+07 3.4039e+07 3.45902e+07 3.02267e+07 3.02899e+07 3.04593e+07 3.07633e+07 3.09321e+07 3.10004e+07
          3.11171e+07 3.12098e+07 3.13182e+07 3.14351e+07 3.26616e+07 3.40046e+07 3.42738e+07 3.4488e+07 3.49128e+07 3.0395e+07 3.04551e+07 3.06039e+07
          3.09092e+07 3.11264e+07 3.11965e+07 3.13283e+07 3.14368e+07 3.157e+07 3.17287e+07 3.31514e+07 3.44141e+07 3.47131e+07 3.49063e+07 3.51979e+07
        </DataArray>
        <DataArray type="Float32" Name="pressure[2]" NumberOfComponents="1" format="ascii">
          2.09672e+07 2.09818e+07 2.14714e+07 2.19809e+07 2.2348e+07 2.27808e+07 2.29211e+07 2.29723e+07 2.30349e+07 2.31047e+07 2.33187e+07 2.36726e+07
          2.39355e+07 2.45946e+07 2.53599e+07 2.10112e+07 2.10257e+07 2.15677e+07 2.20953e+07 2.25024e+07 2.29559e+07 2.30603e+07 2.31004e+07 2.31658e+07
          2.32467e+07 2.35509e+07 2.39116e+07 2.41211e+07 2.47912e+07 2.55272e+07 2.10553e+07 2.10698e+07 2.16373e+07 2.22315e+07 2.2587e+07 2.30115e+07
          2.31391e+07 2.31997e+07 2.32884e+07 2.34049e+07 2.38244e+07 2.42422e+07 2.44391e+07 2.50459e+07 2.57404e+07 2.10998e+07 2.11149e+07 2.14975e+07
          2.23624e+07 2.26995e+07 2.30984e+07 2.32142e+07 2.32693e+07 2.34171e+07 2.36164e+07 2.4186e+07 2.46515e+07 2.48316e+07 2.5347e+07 2.60068e+07
          2.11938e+07 2.12178e+07 1.97788e+07 2.24574e+07 2.28653e+07 2.32812e+07 2.33585e+07 2.33992e+07 2.3667e+07 2.40793e+07 2.46218e+07 2.50401e+07
          2.52186e+07 2.56864e+07 2.62679e+07 2.13912e+07 2.14341e+07 2.19452e+07 2.29008e+07 2.31392e+07 2.37223e+07 2.37966e+07 2.38559e+07 2.414e+07
          2.46192e+07 2.51256e+07 2.53876e+07 2.55784e+07 2.6029e+07 2.65607e+07 2.1644e+07 2.16938e+07 2.25902e+07 2.34306e+07 2.36888e+07 2.42762e+07
          2.436e+07 2.44454e+07 2.46374e+07 2.51565e+07 2.55848e+07 2.56916e+07 2.58733e+07 2.63987e+07 2.69683e+07 2.20071e+07 2.20612e+07 2.3154e+07
          2.39825e+07 2.42399e+07 2.48272e+07 2.48963e+07 2.49654e+07 2.51542e+07 2.55869e+07 2.58835e+07 2.5962e+07 2.6206e+07 2.67782e+07 2.75315e+07
          2.25351e+07 2.25994e+07 2.36419e+07 2.45106e+07 2.48803e+07 2.53117e+07 2.5445e+07 2.55788e+07 2.5745e+07 2.60388e+07 2.61918e+07 2.62217e+07
          2.64737e+07 2.72048e+07 2.80925e+07 2.31747e+07 2.32817e+07 2.39642e+07 2.47122e+07 2.54174e+07 2.57423e+07 2.60265e+07 2.62983e+07 2.63872e+07
          2.65001e+07 2.65666e+07 2.65942e+07 2.68587e+07 2.76325e+07 2.84253e+07 2.41052e+07 2.42457e+07 2.45486e+07 2.5149e+07 2.57894e+07 2.60615e+07
          2.64996e+07 2.68891e+07 2.69637e+07 2.69546e+07 2.69499e+07 2.69858e+07 2.72064e+07 2.79824e+07 2.86714e+07 2.47622e+07 2.48419e+07 2.50001e+07
          2.53511e+07 2.62622e+07 2.63841e+07 2.69761e+07 2.74519e+07 2.74742e+07 2.73991e+07 2.73509e+07 2.73682e+07 2.7584e+07 2.83338e+07 2.93898e+07
          2.52276e+07 2.52946e+07 2.54282e+07 2.57669e+07 2.68328e+07 2.69458e+07 2.75649e+07 2.80983e+07 2.81867e+07 2.79729e+07 2.78591e+07 2.82588e+07
          2.88825e+07 2.98844e+07 3.01223e+07 2.62225e+07 2.62689e+07 2.61662e+07 2.65202e+07 2.77558e+07 2.78646e+07 2.83665e+07 2.87587e+07 2.88273e+07
          2.88842e+07 2.89055e+07 2.94552e+07 3.0209e+07 3.07885e+07 3.0556e+07 2.70394e+07 2.70391e+07 2.71012e+07 2.81295e+07 2.86553e+07 2.87196e+07
          2.90473e+07 2.92845e+07 2.93365e+07 2.94172e+07 2.95741e+07 3.04035e+07 3.10497e+07 3.12325e+07 3.10751e+07 2.7754e+07 2.77788e+07 2.79221e+07
          2.89362e+07 2.91821e+07 2.92371e+07 2.94685e+07 2.96199e+07 2.96702e+07 2.97471e+07 3.00578e+07 3.08385e+07 3.14191e+07 3.17414e+07 3.15655e+07
          2.84789e+07 2.8526e+07 2.86924e+07 2.94577e+07 2.96033e+07 2.96418e+07 2.97585e+07 2.98617e+07 2.99103e+07 2.99749e+07 3.03901e+07 3.1315e+07
          3.19362e+07 3.22487e+07 3.20149e+07 2.90634e+07 2.91221e+07 2.94739e+07 2.9764e+07 2.98924e+07 2.99364e+07 3.00274e+07 3.01043e+07 3.0155e+07
          3.02136e+07 3.07239e+07 3.16991e+07 3.23323e+07 3.25868e+07 3.24634e+07 2.93771e+07 2.9443e+07 2.96594e+07 2.99783e+07 3.01438e+07 3.01914e+07
          3.02713e+07 3.03393e+07 3.03856e+07 3.04419e+07 3.10024e+07 3.20787e+07 3.27263e+07 3.29153e+07 3.30856e+07 2.96286e+07 2.96872e+07 2.9884e+07
          3.02014e+07 3.0364e+07 3.04121e+07 3.04899e+07 3.05544e+07 3.0601e+07 3.0664e+07 3.12187e+07 3.24038e+07 3.31148e+07 3.32619e+07 3.36778e+07
          2.98399e+07 2.99065e+07 3.00638e+07 3.03579e+07 3.056e+07 3.06133e+07 3.06975e+07 3.07662e+07 3.08296e+07 3.09099e+07 3.16947e+07 3.29614e+07
          3.3475e+07 3.36306e+07 3.41398e+07 3.00423e+07 3.01115e+07 3.02519e+07 3.05398e+07 3.0746e+07 3.0805e+07 3.09035e+07 3.09829e+07 3.10661e+07
          3.11591e+07 3.22184e+07 3.35333e+07 3.38484e+07 3.4039e+07 3.45902e+07 3.02267e+07 3.02899e+07 3.04593e+07 3.07633e+07 3.09321e+07 3.10004e+07
          3.11171e+07 3.12098e+07 3.13182e+07 3.14351e+07 3.26616e+07 3.40046e+07 3.42738e+07 3.4488e+07 3.49128e+07 3.0395e+07 3.04551e+07 3.06039e+07
          3.09092e+07 3.11264e+07 3.11965e+07 3.13283e+07 3.14368e+07 3.157e+07 3.17287e+07 3.31514e+07 3.44141e+07 3.47131e+07 3.49063e+07 3.51979e+07
        </DataArray>
        <DataArray type="Float32" Name="velocity[0]" NumberOfComponents="1" format="ascii">
          2.40335e-11 2.90517e-08 2.82791e-10 2.51274e-09 -1.49565e-10 -1.15184e-09 2.39578e-10 1.70487e-09 2.65408e-09 -2.25597e-10 -1.98261e-09 -2.89723e-09
          -2.01705e-09 -6.08415e-10 -2.74296e-09 -1.209e-09 8.40041e-08 6.09593e-10 9.49334e-10 3.37441e-10 2.36787e-09 9.94579e-09 7.14528e-09 6.12636e-09
          -1.9764e-09 -4.12723e-09 -1.22385e-08 -7.57301e-09 -1.92627e-09 -7.27426e-09 -9.38233e-09 1.27416e-07 1.238e-09 2.76142e-08 9.35535e-10 6.74292e-09
          1.84582e-08 1.48258e-08 4.50792e-09 -5.66579e-09 -5.03825e-09 -3.07663e-08 -1.07311e-08 -4.08197e-09 -1.08767e-08 -2.17606e-08 1.57651e-07 6.44458e-09
          1.04011e-07 -3.65382e-10 -1.7741e-09 7.87718e-09 1.16965e-08 -2.68804e-09 -1.36085e-08 -6.75989e-09 -5.43431e-08 -7.65569e-09 -5.8608e-09 -1.47726e-08
          -9.52159e-08 -3.11674e-08 -1.96891e-10 -7.18661e-08 -7.24186e-09 -2.99939e-08 -3.39177e-08 -3.46121e-08 -9.2048e-09 -1.50069e-08 -9.72092e-09 -9.31814e-08
          -3.90385e-09 -5.35082e-09 -1.81259e-08 -1.72304e-07 -2.11455e-07 -7.00832e-09 -2.18207e-07 -2.77409e-08 -9.07551e-08 -6.21363e-08 -9.70877e-08 -1.0225e-08
          -7.69276e-09 -1.45982e-08 -1.34965e-07 -2.33025e-09 -4.26076e-09 -2.03322e-08 -1.73931e-07 -1.84623e-07 -2.55997e-09 -9.4421e-08 -4.21649e-08 -1.60213e-07
          -5.26792e-08 -1.59008e-07 -8.89625e-09 -3.72642e-09 -1.77934e-08 -1.61212e-07 -1.97035e-09 -4.14604e-09 -2.18319e-08 -1.58534e-07 -1.70746e-07 -2.8961e-09
          -3.02424e-08 -3.79444e-08 -1.98886e-07 -3.26123e-08 -2.37818e-07 -7.38212e-09 -2.7947e-09 -1.96154e-08 -1.76519e-07 -1.60399e-09 -4.19739e-09 -2.35251e-08
          -1.41953e-07 -1.54262e-07 -2.87676e-09 -7.79356e-09 -2.97075e-08 -2.17378e-07 -1.22748e-08 -3.12376e-07 -5.80369e-09 -3.05224e-09 -3.21502e-08 -1.67422e-07
          -1.52634e-09 -3.73422e-09 -2.57764e-08 -1.12392e-07 -1.38677e-07 -8.90904e-09 -1.82253e-09 -2.19729e-08 -2.26112e-07 -4.18254e-09 -3.84318e-07 -5.47802e-09
          -3.62028e-09 -5.42173e-08 -1.38335e-07 -2.35006e-09 -3.07833e-09 -2.80313e-08 -7.93908e-08 -1.241e-07 -1.70441e-08 -1.50543e-09 -1.59208e-08 -2.34974e-07
          -1.42816e-09 -4.41818e-07 -9.65054e-09 -5.12047e-09 -6.9674e-08 -1.05856e-07 -5.26778e-09 -3.31676e-09 -3.00698e-08 -5.92244e-08 -1.08604e-07 -2.32487e-08
          -8.06283e-10 -1.29628e-08 -2.4529e-07 -1.19023e-09 -4.88649e-07 -1.95739e-08 -6.85908e-09 -7.65219e-08 -5.74828e-08 -1.35938e-08 -7.07684e-09 -3.15995e-08
          -4.486e-08 -9.12297e-08 -3.14484e-08 -3.44968e-09 -1.49094e-08 -2.31705e-07 -1.74149e-09 -5.22686e-07 -4.82666e-08 -9.19222e-09 -5.62012e-08 -1.78426e-08
          -2.82018e-08 -1.4475e-08 -3.22587e-08 -3.88743e-08 -8.51303e-08 -2.7999e-08 -5.29884e-09 -2.06595e-08 -2.13975e-07 -1.81295e-09 -5.07442e-07 -8.58553e-08
          -1.54599e-08 -2.4889e-08 -7.27217e-09 -3.43178e-08 -2.63487e-08 -3.09369e-08 -4.5812e-08 -7.88803e-08 -1.67915e-08 -4.0271e-09 -2.74326e-08 -2.11657e-07
          -1.29572e-09 -4.65238e-07 -1.04102e-07 -2.39743e-08 -1.49602e-08 -3.85098e-09 -3.1421e-08 -4.12165e-08 -2.75921e-08 -5.58334e-08 -6.0712e-08 -1.09173e-08
          -3.45514e-09 -3.35772e-08 -2.088e-07 -1.62086e-09 -3.967e-07 -1.09057e-07 -3.30873e-08 -8.8612e-09 -5.10934e-09 -3.53904e-08 -6.075e-08 -2.31886e-08
          -5.96398e-08 -4.61722e-08 -6.77767e-09 -4.84573e-09 -4.81037e-08 -1.83281e-07 -3.11839e-09 -3.1381e-07 -1.09826e-07 -5.133e-08 -3.63247e-09 -5.00436e-09
          -2.90715e-08 -9.03228e-08 -1.84065e-08 -5.88701e-08 -3.65704e-08 -2.60546e-09 -3.62038e-09 -7.19724e-08 -1.32935e-07 -4.76274e-09 -2.38554e-07 -1.18071e-07
          -7.74835e-08 -2.56891e-09 -3.37588e-09 -1.88926e-08 -1.18187e-07 -1.43698e-08 -5.32548e-08 -2.62903e-08 -1.41227e-09 -1.36579e-09 -8.94368e-08 -8.49364e-08
          -5.02126e-09 -1.69508e-07 -1.17542e-07 -1.21126e-07 -1.49094e-09 -2.77999e-09 -2.4741e-08 -1.35217e-07 -1.25904e-08 -4.43157e-08 -1.77708e-08 -1.43894e-09
          -6.3157e-10 -9.56774e-08 -4.85086e-08 -4.20087e-09 -1.23897e-07 -7.5799e-08 -2.08936e-07 -2.60149e-09 -3.96062e-09 -3.67749e-08 -1.4353e-07 -1.35674e-08
          -3.39335e-08 -1.19795e-08 -1.30482e-09 -1.71571e-10 -8.92773e-08 -2.54597e-08 -3.60947e-09 -9.73607e-08 -3.16244e-08 -2.89096e-07 -4.07988e-09 -7.30064e-09
          -4.47034e-08 -1.50118e-07 -1.56086e-08 -2.13711e-08 -6.12234e-09 -2.04768e-09 -7.97468e-10 -6.61098e-08 -1.73403e-08 -3.52226e-09 -9.14908e-08 -1.711e-08
          -3.0512e-07 -3.71731e-09 -1.40043e-08 -4.89479e-08 -1.56811e-07 -1.93879e-08 -9.98765e-09 -2.45323e-09 -9.24469e-10 -5.28879e-10 -3.30108e-08 -1.29322e-08
          -2.88376e-09 -9.61286e-08 -1.37559e-08 -2.62578e-07 -5.15427e-09 -2.41341e-08 -6.43031e-08 -1.63493e-07 -2.53354e-08 -2.64826e-09 -5.53469e-10 2.00488e-10
          7.17296e-11 -7.77446e-09 -4.93149e-09 -1.05404e-09 -4.88998e-08 -6.40067e-09 -1.13456e-07 -3.40049e-09 -1.46413e-08 -3.84279e-08 -8.40574e-08 -1.42299e-08
        </DataArray>
        <DataArray type="Float32" Name="velocity[1]" NumberOfComponents="1" format="ascii">
          -3.73509e-27 4.64147e-24 9.60104e-26 3.90509e-25 2.32441e-26 0 -3.72332e-26 -2.36434e-25 3.47059e-26 5.77923e-24 -3.73009e-24 2.89871e-26
          2.41799e-24 -9.55682e-25 4.26417e-25 1.95363e-25 3.91229e-24 8.84486e-26 -6.33481e-25 -1.82936e-25 7.21734e-24 1.34426e-24 4.70789e-25 -6.86774e-24
          -1.20378e-25 0 -2.45668e-26 3.01345e-26 -1.98739e-27 2.77929e-25 1.07487e-24 -6.14564e-24 -1.38151e-24 4.77752e-24 -2.09926e-25 0
          1.04998e-25 -6.46686e-25 -3.78681e-25 0 7.21125e-24 -1.14445e-23 0 1.12725e-24 -2.81689e-25 1.74111e-24 1.05315e-23 -1.35992e-24
          -9.75901e-24 2.7055e-25 9.14136e-24 -2.26433e-23 2.52389e-23 -4.27931e-24 1.13729e-24 3.70731e-24 -4.73235e-24 3.03974e-24 -1.29351e-24 9.70428e-25
          -1.14102e-25 -6.26437e-23 5.45955e-24 1.00292e-23 -3.68384e-25 -3.20025e-24 3.65855e-26 -9.8161e-26 -3.20003e-25 -7.04444e-24 4.56771e-24 -8.50312e-24
          3.68059e-28 1.31089e-25 -1.5073e-24 -1.45336e-25 6.60612e-24 -5.01815e-25 1.98414e-24 2.30243e-25 -6.17316e-24 0 -3.20256e-26 3.18142e-25
          5.27458e-25 -4.48125e-25 6.5133e-24 -1.33878e-24 7.93572e-25 1.50756e-24 -9.81484e-25 1.10347e-24 0 7.98768e-24 -1.56707e-25 -9.16241e-24
          1.10764e-25 2.04111e-27 -2.62792e-24 -7.07413e-28 4.79295e-28 2.8962e-28 2.39553e-26 2.37124e-28 -1.65258e-24 -1.97257e-25 1.25327e-23 1.27365e-24
          4.78098e-24 -1.20068e-26 1.30178e-23 1.00957e-25 7.11516e-26 2.88564e-25 -1.49914e-26 -3.19424e-24 -1.31414e-23 3.3588e-28 -3.37313e-25 1.91571e-24
          -1.54109e-24 -8.82931e-24 -6.69889e-27 -1.37105e-24 -8.4477e-25 3.37733e-24 0 0 -1.41671e-25 -6.00871e-28 6.21411e-25 3.91498e-24
          6.86577e-28 5.98197e-26 1.92599e-28 -1.03583e-23 1.4847e-24 1.73104e-24 1.25953e-27 -3.05943e-24 3.46233e-24 -6.4245e-24 5.83095e-24 2.12489e-25
          -6.33083e-26 -1.62285e-25 3.48485e-24 -7.71198e-25 0 -2.09025e-24 3.70667e-24 1.76756e-25 2.72156e-25 -2.09297e-25 2.25481e-24 -1.82184e-27
          -4.05179e-24 6.21649e-24 5.95455e-25 1.68691e-25 -3.0365e-25 8.02687e-24 1.69108e-24 -2.8172e-25 1.4086e-25 -3.97467e-24 2.63246e-24 -6.983e-25
          -1.62651e-25 -1.56074e-24 -1.91911e-23 3.14734e-26 4.17502e-24 -3.62214e-24 -1.00502e-25 1.60566e-24 2.93797e-24 -1.74486e-24 9.95641e-25 -9.66896e-26
          2.99691e-24 7.79524e-24 0 -3.31422e-25 3.29047e-25 2.37306e-24 5.5157e-26 1.12139e-24 -3.51413e-24 1.33267e-27 -2.59842e-24 -8.22661e-25
          1.37057e-24 -8.0213e-25 -1.72869e-28 4.73016e-26 1.03916e-27 8.15738e-25 8.82493e-26 1.36906e-27 1.59038e-23 -4.21469e-26 -3.48478e-24 5.75871e-24
          -3.77267e-25 2.59858e-24 2.21024e-24 -4.40254e-24 6.29487e-29 -2.29844e-24 -3.04417e-24 -5.41325e-24 -5.67256e-29 3.89731e-25 4.86862e-25 2.61402e-28
          -3.72894e-26 -7.58476e-24 2.00606e-24 0 0 3.07521e-25 3.65732e-24 -4.92342e-25 4.28829e-24 0 1.39268e-24 0
          -3.00844e-25 4.69002e-25 1.34875e-28 8.78198e-26 -7.57935e-24 2.60754e-28 1.3534e-28 -2.86472e-30 3.98382e-24 -3.06555e-28 -1.1749e-24 -1.98954e-24
          1.39895e-28 8.66995e-25 6.03598e-28 -1.52097e-25 1.78987e-24 -9.70705e-24 0 -1.00342e-23 0 7.17053e-29 2.92308e-24 -3.6185e-24
          -1.62889e-24 2.41657e-28 1.24651e-24 0 3.15437e-24 0 4.52541e-25 1.61782e-24 4.67073e-24 1.10005e-25 -6.39287e-24 -5.43235e-24
          -2.0349e-24 1.73216e-25 4.92115e-26 5.11129e-31 -1.65892e-24 -9.86723e-25 3.79421e-24 -1.89216e-24 2.07352e-24 -1.70493e-24 7.94482e-25 8.16657e-24
          -6.9827e-26 -4.33743e-24 9.88616e-24 5.18587e-24 -3.11885e-24 6.80617e-26 8.62066e-25 -4.05836e-28 9.69972e-25 2.04653e-28 -3.427e-24 7.41544e-25
          -1.57041e-24 3.51042e-25 -2.52949e-24 -1.14734e-25 -5.50162e-24 -4.98397e-24 8.90054e-24 2.53641e-25 3.33546e-24 1.00804e-24 -3.37588e-25 -8.01375e-25
          -9.12283e-25 5.49283e-25 0 -3.39637e-26 -1.17031e-24 4.09293e-24 -7.19683e-24 7.19822e-24 -5.32556e-24 1.0691e-27 0 0
          2.2422e-25 -6.34363e-28 1.28719e-24 -1.04007e-24 -1.09249e-24 1.00871e-24 -1.69512e-24 -8.99851e-25 -1.24286e-24 2.00183e-26 4.61037e-25 -3.46966e-24
          1.25946e-23 -2.40483e-25 -6.06317e-24 4.3509e-25 8.78362e-25 -7.86605e-29 -7.28751e-25 -2.77578e-28 -3.68525e-28 1.03364e-25 -2.71422e-24 4.77527e-25
          -1.20549e-25 9.46909e-24 -3.94472e-24 0 -2.55917e-25 -7.99763e-25 6.17674e-24 -7.19091e-25 0 -4.11898e-25 -3.36473e-28 -3.36281e-25
          5.71067e-25 -1.20777e-24 -1.99446e-24 -3.28965e-25 -2.60375e-24 9.9474e-25 -2.75157e-23 0 2.75007e-23 -2.01459e-23 1.66261e-23 4.18247e-25
        </DataArray>
        <DataArray type="Float32" Name="velocity[2]" NumberOfComponents="1" format="ascii">
          1.59053e-11 3.73423e-09 -2.72154e-09 -2.38046e-09 -2.8902e-09 -2.95393e-09 -2.63464e-09 -2.41501e-09 -2.43404e-09 -3.06492e-09 -3.20753e-09 -3.03933e-09
          -2.54755e-09 -2.0415e-09 -1.39772e-09 -1.16444e-10 1.37475e-08 -2.17088e-09 -1.82456e-09 -1.69667e-09 -1.54671e-09 -6.58611e-10 -1.49252e-09 -1.8038e-09
          -3.19278e-09 -3.46858e-09 -4.47577e-09 -3.0081e-09 -1.64743e-09 -1.87852e-09 -1.17814e-09 2.25588e-08 -5.66934e-10 2.57614e-09 -3.5822e-09 -2.48822e-09
          -3.58708e-10 -1.06578e-09 -2.82617e-09 -4.35508e-09 -4.0741e-09 -7.81121e-09 -3.56278e-09 -2.16967e-09 -2.52237e-09 -3.45365e-09 2.79324e-08 2.90073e-10
          1.48954e-08 -5.6349e-09 -5.37621e-09 -3.01503e-09 -1.88446e-09 -3.92864e-09 -5.30593e-09 -3.77714e-09 -1.14077e-08 -2.66792e-09 -2.47588e-09 -3.298e-09
          -1.22079e-08 1.92659e-10 -8.65915e-10 -1.97748e-08 -1.12434e-08 -1.39456e-08 -1.28263e-08 -1.10215e-08 -5.36382e-09 -6.43265e-09 -5.54186e-09 -1.84977e-08
          -1.18366e-09 -1.65003e-09 -3.61974e-09 -2.97142e-08 -3.69585e-08 -2.24215e-09 -4.34624e-08 -1.26578e-08 -2.10185e-08 -1.42154e-08 -1.98746e-08 -4.01612e-09
          -3.78889e-09 -4.95944e-09 -2.51354e-08 -9.16054e-10 -1.33249e-09 -3.89657e-09 -3.10908e-08 -3.36e-08 -1.6576e-09 -2.01739e-08 -1.33728e-08 -3.29299e-08
          -1.28217e-08 -3.07058e-08 -3.29313e-09 -2.51119e-09 -5.01393e-09 -2.95758e-08 -7.77576e-10 -1.12907e-09 -4.03775e-09 -2.83988e-08 -3.13235e-08 -1.99216e-09
          -7.51219e-09 -9.82561e-09 -3.7969e-08 -8.62275e-09 -4.4155e-08 -2.51921e-09 -1.76214e-09 -4.6285e-09 -3.19901e-08 -9.71831e-10 -1.47796e-09 -4.52408e-09
          -2.55187e-08 -2.85e-08 -2.12599e-09 -3.30314e-09 -7.77051e-09 -4.07483e-08 -4.34533e-09 -5.6488e-08 -1.55896e-09 -1.10765e-09 -5.53375e-09 -2.944e-08
          -9.18745e-10 -1.34235e-09 -4.91833e-09 -2.11284e-08 -2.73355e-08 -4.10843e-09 -2.16233e-09 -5.8001e-09 -4.19613e-08 -2.88012e-09 -6.89723e-08 -1.15023e-09
          -7.8694e-10 -8.99294e-09 -2.41155e-08 -1.10112e-09 -1.25043e-09 -5.31965e-09 -1.47544e-08 -2.36954e-08 -4.92693e-09 -2.05393e-09 -4.80553e-09 -4.31789e-08
          -1.60627e-09 -7.87403e-08 -1.77128e-09 -6.98841e-10 -1.17592e-08 -1.88194e-08 -1.87253e-09 -1.27423e-09 -5.60443e-09 -1.09599e-08 -2.06072e-08 -5.592e-09
          -1.22079e-09 -3.3476e-09 -4.4246e-08 -1.12e-09 -8.63537e-08 -2.55918e-09 7.3282e-11 -1.20302e-08 -1.04616e-08 -4.27976e-09 -2.20373e-09 -5.77943e-09
          -8.32957e-09 -1.73774e-08 -6.96207e-09 -1.59229e-09 -3.39414e-09 -4.22222e-08 -2.37453e-09 -9.40328e-08 -8.82795e-09 -5.14299e-10 -1.01779e-08 -5.2908e-09
          -6.96459e-09 -3.26422e-09 -5.69676e-09 -6.83301e-09 -1.48193e-08 -5.22221e-09 -1.85767e-09 -4.38595e-09 -3.83887e-08 -1.10727e-09 -9.08552e-08 -1.62288e-08
          -2.73628e-09 -4.75721e-09 -2.39213e-09 -7.53953e-09 -5.02775e-09 -5.00237e-09 -7.63586e-09 -1.34847e-08 -3.34413e-09 -1.49071e-09 -5.50068e-09 -3.78115e-08
          -7.16964e-10 -8.3059e-08 -1.97095e-08 -5.2272e-09 -3.56792e-09 -1.70276e-09 -6.58354e-09 -7.13278e-09 -4.2029e-09 -9.61927e-09 -1.07015e-08 -2.53041e-09
          -1.35528e-09 -6.48572e-09 -3.73633e-08 -9.56387e-10 -7.19075e-08 -2.23858e-08 -8.6814e-09 -4.50134e-09 -4.05694e-09 -9.0351e-09 -1.1164e-08 -3.28291e-09
          -1.04885e-08 -8.3647e-09 -1.8948e-09 -1.70338e-09 -8.66873e-09 -3.29414e-08 -2.19832e-09 -5.78688e-08 -2.28646e-08 -1.20865e-08 -3.18863e-09 -3.55068e-09
          -8.5813e-09 -1.7215e-08 -2.45696e-09 -1.046e-08 -6.8083e-09 -1.18478e-09 -1.63836e-09 -1.31379e-08 -2.45242e-08 -3.21203e-09 -4.54997e-08 -2.48103e-08
          -1.65804e-08 -2.882e-09 -3.06909e-09 -5.79463e-09 -2.15044e-08 -1.97639e-09 -9.68403e-09 -5.5383e-09 -1.40545e-09 -1.33946e-09 -1.65997e-08 -1.64746e-08
          -3.33601e-09 -3.3097e-08 -2.52591e-08 -2.52502e-08 -2.96532e-09 -3.25172e-09 -6.78054e-09 -2.48312e-08 -2.18397e-09 -8.11376e-09 -3.84771e-09 -1.13947e-09
          -1.09008e-09 -1.78239e-08 -1.02057e-08 -3.16203e-09 -2.47504e-08 -1.86649e-08 -4.17745e-08 -2.99687e-09 -3.03605e-09 -8.29272e-09 -2.63584e-08 -2.75389e-09
          -6.37504e-09 -3.07206e-09 -1.31991e-09 -1.06251e-09 -1.71656e-08 -6.63081e-09 -3.10059e-09 -1.98738e-08 -9.24511e-09 -5.44568e-08 -3.29223e-09 -3.76636e-09
          -1.01622e-08 -2.78812e-08 -3.07105e-09 -4.21471e-09 -2.08836e-09 -1.46877e-09 -1.21098e-09 -1.35418e-08 -5.83889e-09 -3.46142e-09 -1.88906e-08 -5.83985e-09
          -5.70445e-08 -4.18478e-09 -5.71284e-09 -1.13887e-08 -2.98774e-08 -4.35981e-09 -2.07403e-09 -1.12574e-09 -1.03865e-09 -1.11777e-09 -7.81066e-09 -5.34498e-09
          -3.73729e-09 -2.01557e-08 -5.64363e-09 -5.10027e-08 -6.93141e-09 -9.86439e-09 -1.58014e-08 -3.16837e-08 -5.50909e-09 -6.43668e-10 -4.78759e-10 -3.56434e-10
          -3.5858e-10 -2.15353e-09 -2.29733e-09 -1.87214e-09 -1.16412e-08 -5.83557e-09 -2.96337e-08 -1.26877e-08 -1.11061e-08 -1.26532e-08 -1.76295e-08 -2.95774e-09
        </DataArray>
        <DataArray type="Float32" Name="z[0]" NumberOfComponents="1" format="ascii">
          0.150578 0.150579 0.15058 0.150582 0.150582 0.150583 0.150584 0.150585 0.150585 0.150586 0.150587 0.150588
          0.150589 0.150591 0.150596 0.150581 0.150582 0.150583 0.150585 0.150586 0.150587 0.150587 0.150588 0.150588
          0.150589 0.15059 0.150591 0.150593 0.150595 0.150599 0.150584 0.150585 0.150587 0.150588 0.150589 0.15059
          0.15059 0.150591 0.150592 0.150593 0.150593 0.150595 0.150596 0.150598 0.150602 0.150588 0.150589 0.15059
          0.150591 0.150592 0.150593 0.150594 0.150594 0.150595 0.150596 0.150597 0.150598 0.150599 0.150601 0.150605
          0.150591 0.150592 0.150593 0.150594 0.150595 0.15688 0.163451 0.224624 0.150598 0.150599 0.1506 0.150601
          0.150602 0.150604 0.150609 0.150594 0.150595 0.150596 0.150597 0.173469 0.396956 0.394516 0.392047 0.150601
          0.150602 0.150603 0.150604 0.150605 0.150607 0.150612 0.150597 0.150598 0.150599 0.150669 0.353871 0.422749