<?xml version="1.0"?>
<VTKFile type="UnstructuredGrid" version="0.1" byte_order="LittleEndian">
  <UnstructuredGrid>
    <Piece NumberOfCells="360" NumberOfPoints="800">
      <CellData Scalars="pressure[0]">
        <DataArray type="Float32" Name="pressure[0]" NumberOfComponents="1" format="ascii">
          2.13e+07 2.13139e+07 2.21356e+07 2.29298e+07 2.32969e+07 2.36724e+07 2.37899e+07 2.3834e+07 2.38892e+07 2.39488e+07 2.4097e+07 2.43405e+07
          2.45232e+07 2.50628e+07 2.57347e+07 2.13811e+07 2.14231e+07 2.23044e+07 2.31007e+07 2.3479e+07 2.38516e+07 2.39373e+07 2.3972e+07 2.40279e+07
          2.4093e+07 2.42932e+07 2.45378e+07 2.46908e+07 2.52502e+07 2.58977e+07 2.15054e+07 2.15524e+07 2.24501e+07 2.32565e+07 2.35934e+07 2.39461e+07
          2.40486e+07 2.40968e+07 2.4166e+07 2.42492e+07 2.45122e+07 2.47862e+07 2.4947e+07 2.54759e+07 2.60989e+07 2.16325e+07 2.16794e+07 2.22749e+07
          2.33949e+07 2.37384e+07 2.40892e+07 2.41836e+07 2.42267e+07 2.43219e+07 2.44383e+07 2.47829e+07 2.5112e+07 2.52794e+07 2.57431e+07 2.6345e+07
          2.17628e+07 2.17819e+07 1.9832e+07 2.34969e+07 2.39536e+07 2.43237e+07 2.43853e+07 2.44177e+07 2.45522e+07 2.47489e+07 2.51144e+07 2.54204e+07
          2.55987e+07 2.60428e+07 2.65876e+07 2.19762e+07 2.20189e+07 2.28596e+07 2.40492e+07 2.43504e+07 2.45899e+07 2.46316e+07 2.46643e+07 2.48285e+07
          2.51446e+07 2.55028e+07 2.56995e+07 2.58936e+07 2.63418e+07 2.6858e+07 2.22555e+07 2.2308e+07 2.35558e+07 2.45018e+07 2.47068e+07 2.48733e+07
          2.49151e+07 2.49496e+07 2.51074e+07 2.55169e+07 2.58537e+07 2.59475e+07 2.61338e+07 2.66635e+07 2.72284e+07 2.26599e+07 2.27176e+07 2.39124e+07
          2.48292e+07 2.50347e+07 2.51647e+07 2.52023e+07 2.52344e+07 2.54202e+07 2.58219e+07 2.60973e+07 2.61742e+07 2.64224e+07 2.69983e+07 2.77346e+07
          2.32436e+07 2.33087e+07 2.42252e+07 2.51008e+07 2.53551e+07 2.54595e+07 2.55133e+07 2.55653e+07 2.57854e+07 2.61586e+07 2.63496e+07 2.63946e+07
          2.66451e+07 2.73799e+07 2.82428e+07 2.38582e+07 2.39625e+07 2.4462e+07 2.51649e+07 2.56305e+07 2.57211e+07 2.58289e+07 2.59347e+07 2.61453e+07
          2.64809e+07 2.66487e+07 2.66932e+07 2.69635e+07 2.7766e+07 2.85528e+07 2.45751e+07 2.46893e+07 2.49853e+07 2.54792e+07 2.5863e+07 2.59313e+07
          2.60936e+07 2.62505e+07 2.64448e+07 2.67568e+07 2.69551e+07 2.70153e+07 2.7259e+07 2.80941e+07 2.87863e+07 2.53248e+07 2.53985e+07 2.55283e+07
          2.58322e+07 2.60909e+07 2.61368e+07 2.63522e+07 2.65631e+07 2.67621e+07 2.70396e+07 2.72653e+07 2.73592e+07 2.76385e+07 2.84408e+07 2.90365e+07
          2.58849e+07 2.59341e+07 2.59736e+07 2.62035e+07 2.63861e+07 2.64266e+07 2.6611e+07 2.72004e+07 2.7295e+07 2.74655e+07 2.76469e+07 2.78452e+07
          2.81594e+07 2.87995e+07 2.9296e+07 2.63273e+07 2.63757e+07 2.64122e+07 2.66567e+07 2.68172e+07 2.68522e+07 2.70158e+07 2.77145e+07 2.77498e+07
          2.78547e+07 2.79716e+07 2.82966e+07 2.87158e+07 2.98282e+07 2.97591e+07 2.66875e+07 2.67226e+07 2.6874e+07 2.7142e+07 2.72488e+07 2.72568e+07
          2.7452e+07 2.81973e+07 2.82258e+07 2.82661e+07 2.83454e+07 2.87586e+07 3.01793e+07 3.04191e+07 3.0331e+07 2.70124e+07 2.70596e+07 2.73263e+07
          2.76384e+07 2.77209e+07 2.78794e+07 2.80336e+07 2.85892e+07 2.8643e+07 2.87288e+07 2.90433e+07 2.9935e+07 3.06695e+07 3.10784e+07 3.08868e+07
          2.7334e+07 2.74184e+07 2.77352e+07 2.80838e+07 2.84445e+07 2.85004e+07 2.86734e+07 2.88373e+07 2.8889e+07 2.8958e+07 2.94499e+07 3.05711e+07
          3.13356e+07 3.17152e+07 3.14043e+07 2.78395e+07 2.7867e+07 2.80882e+07 2.85884e+07 2.87989e+07 2.88469e+07 2.89767e+07 2.90895e+07 2.9144e+07
          2.92062e+07 2.9832e+07 3.10377e+07 3.18186e+07 3.21146e+07 3.19264e+07 2.81803e+07 2.82427e+07 2.8468e+07 2.88775e+07 2.90912e+07 2.91407e+07
          2.92463e+07 2.93382e+07 2.93872e+07 2.94467e+07 3.01419e+07 3.14855e+07 3.22883e+07 3.24985e+07 3.26753e+07 2.84553e+07 2.85147e+07 2.8742e+07
          2.91361e+07 2.9335e+07 2.93847e+07 2.94826e+07 2.95654e+07 2.96149e+07 2.9683e+07 3.0374e+07 3.18618e+07 3.27479e+07 3.2905e+07 3.3389e+07
          2.86811e+07 2.87514e+07 2.89349e+07 2.92962e+07 2.95438e+07 2.96002e+07 2.97035e+07 2.97889e+07 2.98603e+07 2.99511e+07 3.09372e+07 3.25337e+07
          3.31706e+07 3.33395e+07 3.39397e+07 2.88958e+07 2.89697e+07 2.91325e+07 2.9486e+07 2.97387e+07 2.98022e+07 2.99222e+07 3.00198e+07 3.01167e+07
          3.02242e+07 3.15635e+07 3.32262e+07 3.36112e+07 3.3825e+07 3.44761e+07 2.90874e+07 2.91537e+07 2.93542e+07 2.97287e+07 2.99332e+07 3.00086e+07
          3.0151e+07 3.0265e+07 3.0394e+07 3.05321e+07 3.20882e+07 3.37905e+07 3.41185e+07 3.43626e+07 3.48477e+07 2.92584e+07 2.93207e+07 2.94946e+07
          2.9871e+07 3.01381e+07 3.02156e+07 3.03772e+07 3.05111e+07 3.06716e+07 3.0863e+07 3.26728e+07 3.42745e+07 3.46414e+07 3.48593e+07 3.51705e+07
        </DataArray>
        <DataArray type="Float32" Name="pressure[1]" NumberOfComponents="1" format="ascii">
          2.13e+07 2.13139e+07 2.21356e+07 2.29298e+07 2.32969e+07 2.36724e+07 2.37899e+07 2.3834e+07 2.38892e+07 2.39488e+07 2.4097e+07 2.43405e+07
          2.45232e+07 2.50628e+07 2.57347e+07 2.13811e+07 2.14231e+07 2.23044e+07 2.31007e+07 2.3479e+07 2.38516e+07 2.39373e+07 2.3972e+07 2.40279e+07
          2.4093e+07 2.42932e+07 2.45378e+07 2.46908e+07 2.52502e+07 2.58977e+07 2.15054e+07 2.15524e+07 2.24501e+07 2.32565e+07 2.35934e+07 2.39461e+07
          2.40486e+07 2.40968e+07 2.4166e+07 2.42492e+07 2.45122e+07 2.47862e+07 2.4947e+07 2.54759e+07 2.60989e+07 2.16325e+07 2.16794e+07 2.22749e+07
          2.33949e+07 2.37384e+07 2.40892e+07 2.41836e+07 2.42267e+07 2.43219e+07 2.44383e+07 2.47829e+07 2.5112e+07 2.52794e+07 2.57431e+07 2.6345e+07
          2.17628e+07 2.17819e+07 1.9832e+07 2.34969e+07 2.39536e+07 2.43237e+07 2.43853e+07 2.44177e+07 2.45522e+07 2.47489e+07 2.51144e+07 2.54204e+07
          2.55987e+07 2.60428e+07 2.65876e+07 2.19762e+07 2.20189e+07 2.28596e+07 2.40492e+07 2.43504e+07 2.45899e+07 2.46316e+07 2.46643e+07 2.48285e+07
          2.51446e+07 2.55028e+07 2.56995e+07 2.58936e+07 2.63418e+07 2.6858e+07 2.22555e+07 2.2308e+07 2.35558e+07 2.45018e+07 2.47068e+07 2.48733e+07
          2.49151e+07 2.49496e+07 2.51074e+07 2.55169e+07 2.58537e+07 2.59475e+07 2.61338e+07 2.66635e+07 2.72284e+07 2.26599e+07 2.27176e+07 2.39124e+07
          2.48292e+07 2.50347e+07 2.51647e+07 2.52023e+07 2.52344e+07 2.54202e+07 2.58219e+07 2.60973e+07 2.61742e+07 2.64224e+07 2.69983e+07 2.77346e+07
          2.32436e+07 2.33087e+07 2.42252e+07 2.51008e+07 2.53551e+07 2.54595e+07 2.55133e+07 2.55653e+07 2.57854e+07 2.61586e+07 2.63496e+07 2.63946e+07
          2.66451e+07 2.73799e+07 2.82428e+07 2.38582e+07 2.39625e+07 2.4462e+07 2.51649e+07 2.56305e+07 2.57211e+07 2.58289e+07 2.59347e+07 2.61453e+07
          2.64809e+07 2.66487e+07 2.66932e+07 2.69635e+07 2.7766e+07 2.85528e+07 2.45751e+07 2.46893e+07 2.49853e+07 2.54792e+07 2.5863e+07 2.59313e+07
          2.60936e+07 2.62505e+07 2.64448e+07 2.67568e+07 2.69551e+07 2.70153e+07 2.7259e+07 2.80941e+07 2.87863e+07 2.53248e+07 2.53985e+07 2.55283e+07
          2.58322e+07 2.60909e+07 2.61368e+07 2.63522e+07 2.65631e+07 2.67621e+07 2.70396e+07 2.72653e+07 2.73592e+07 2.76385e+07 2.84408e+07 2.90365e+07
          2.58849e+07 2.59341e+07 2.59736e+07 2.62035e+07 2.63861e+07 2.64266e+07 2.6611e+07 2.72004e+07 2.7295e+07 2.74655e+07 2.76469e+07 2.78452e+07
          2.81594e+07 2.87995e+07 2.9296e+07 2.63273e+07 2.63757e+07 2.64122e+07 2.66567e+07 2.68172e+07 2.68522e+07 2.70158e+07 2.77145e+07 2.77498e+07
          2.78547e+07 2.79716e+07 2.82966e+07 2.87158e+07 2.98282e+07 2.97591e+07 2.66875e+07 2.67226e+07 2.6874e+07 2.7142e+07 2.72488e+07 2.72568e+07
          2.7452e+07 2.81973e+07 2.82258e+07 2.82661e+07 2.83454e+07 2.87586e+07 3.01793e+07 3.04191e+07 3.0331e+07 2.70124e+07 2.70596e+07 2.73263e+07
          2.76384e+07 2.77209e+07 2.78794e+07 2.80336e+07 2.85892e+07 2.8643e+07 2.87288e+07 2.90433e+07 2.9935e+07 3.06695e+07 3.10784e+07 3.08868e+07
          2.7334e+07 2.74184e+07 2.77352e+07 2.80838e+07 2.84445e+07 2.85004e+07 2.86734e+07 2.88373e+07 2.8889e+07 2.8958e+07 2.94499e+07 3.05711e+07
          3.13356e+07 3.17152e+07 3.14043e+07 2.78395e+07 2.7867e+07 2.80882e+07 2.85884e+07 2.87989e+07 2.88469e+07 2.89767e+07 2.90895e+07 2.9144e+07
          2.92062e+07 2.9832e+07 3.10377e+07 3.18186e+07 3.21146e+07 3.19264e+07 2.81803e+07 2.82427e+07 2.8468e+07 2.88775e+07 2.90912e+07 2.91407e+07
          2.92463e+07 2.93382e+07 2.93872e+07 2.94467e+07 3.01419e+07 3.14855e+07 3.22883e+07 3.24985e+07 3.26753e+07 2.84553e+07 2.85147e+07 2.8742e+07
          2.91361e+07 2.9335e+07 2.93847e+07 2.94826e+07 2.95654e+07 2.96149e+07 2.9683e+07 3.0374e+07 3.18618e+07 3.27479e+07 3.2905e+07 3.3389e+07
          2.86811e+07 2.87514e+07 2.89349e+07 2.92962e+07 2.95438e+07 2.96002e+07 2.97035e+07 2.97889e+07 2.98603e+07 2.99511e+07 3.09372e+07 3.25337e+07
          3.31706e+07 3.33395e+07 3.39397e+07 2.88958e+07 2.89697e+07 2.91325e+07 2.9486e+07 2.97387e+07 2.98022e+07 2.99222e+07 3.00198e+07 3.01167e+07
          3.02242e+07 3.15635e+07 3.32262e+07 3.36112e+07 3.3825e+07 3.44761e+07 2.90874e+07 2.91537e+07 2.93542e+07 2.97287e+07 2.99332e+07 3.00086e+07
          3.0151e+07 3.0265e+07 3.0394e+07 3.05321e+07 3.20882e+07 3.37905e+07 3.41185e+07 3.43626e+07 3.48477e+07 2.92584e+07 2.93207e+07 2.94946e+07
          2.9871e+07 3.01381e+07 3.02156e+07 3.03772e+07 3.05111e+07 3.06716e+07 3.0863e+07 3.26728e+07 3.42745e+07 3.46414e+07 3.48593e+07 3.51705e+07
        </DataArray>
        <DataArray type="Float32" Name="pressure[2]" NumberOfComponents="1" format="ascii">
          2.13e+07 2.13139e+07 2.21356e+07 2.29298e+07 2.32969e+07 2.36724e+07 2.37899e+07 2.3834e+07 2.38892e+07 2.39488e+07 2.4097e+07 2.43405e+07
          2.45232e+07 2.50628e+07 2.57347e+07 2.13811e+07 2.14231e+07 2.23044e+07 2.31007e+07 2.3479e+07 2.38516e+07 2.39373e+07 2.3972e+07 2.40279e+07
          2.4093e+07 2.42932e+07 2.45378e+07 2.46908e+07 2.52502e+07 2.58977e+07 2.15054e+07 2.15524e+07 2.24501e+07 2.32565e+07 2.35934e+07 2.39461e+07
          2.40486e+07 2.40968e+07 2.4166e+07 2.42492e+07 2.45122e+07 2.47862e+07 2.4947e+07 2.54759e+07 2.60989e+07 2.16325e+07 2.16794e+07 2.22749e+07
          2.33949e+07 2.37384e+07 2.40892e+07 2.41836e+07 2.42267e+07 2.43219e+07 2.44383e+07 2.47829e+07 2.5112e+07 2.52794e+07 2.57431e+07 2.6345e+07
          2.17628e+07 2.17819e+07 1.9832e+07 2.34969e+07 2.39536e+07 2.43237e+07 2.43853e+07 2.44177e+07 2.45522e+07 2.47489e+07 2.51144e+07 2.54204e+07
          2.55987e+07 2.60428e+07 2.65876e+07 2.19762e+07 2.20189e+07 2.28596e+07 2.40492e+07 2.43504e+07 2.45899e+07 2.46316e+07 2.46643e+07 2.48285e+07
          2.51446e+07 2.55028e+07 2.56995e+07 2.58936e+07 2.63418e+07 2.6858e+07 2.22555e+07 2.2308e+07 2.35558e+07 2.45018e+07 2.47068e+07 2.48733e+07
          2.49151e+07 2.49496e+07 2.51074e+07 2.55169e+07 2.58537e+07 2.59475e+07 2.61338e+07 2.66635e+07 2.72284e+07 2.26599e+07 2.27176e+07 2.39124e+07
          2.48292e+07 2.50347e+07 2.51647e+07 2.52023e+07 2.52344e+07 2.54202e+07 2.58219e+07 2.60973e+07 2.61742e+07 2.64224e+07 2.69983e+07 2.77346e+07
          2.32436e+07 2.33087e+07 2.42252e+07 2.51008e+07 2.53551e+07 2.54595e+07 2.55133e+07 2.55653e+07 2.57854e+07 2.61586e+07 2.63496e+07 2.63946e+07
          2.66451e+07 2.73799e+07 2.82428e+07 2.38582e+07 2.39625e+07 2.4462e+07 2.51649e+07 2.56305e+07 2.57211e+07 2.58289e+07 2.59347e+07 2.61453e+07
          2.64809e+07 2.66487e+07 2.66932e+07 2.69635e+07 2.7766e+07 2.85528e+07 2.45751e+07 2.46893e+07 2.49853e+07 2.54792e+07 2.5863e+07 2.59313e+07
          2.60936e+07 2.62505e+07 2.64448e+07 2.67568e+07 2.69551e+07 2.70153e+07 2.7259e+07 2.80941e+07 2.87863e+07 2.53248e+07 2.53985e+07 2.55283e+07
          2.58322e+07 2.60909e+07 2.61368e+07 2.63522e+07 2.65631e+07 2.67621e+07 2.70396e+07 2.72653e+07 2.73592e+07 2.76385e+07 2.84408e+07 2.90365e+07
          2.58849e+07 2.59341e+07 2.59736e+07 2.62035e+07 2.63861e+07 2.64266e+07 2.6611e+07 2.72004e+07 2.7295e+07 2.74655e+07 2.76469e+07 2.78452e+07
          2.81594e+07 2.87995e+07 2.9296e+07 2.63273e+07 2.63757e+07 2.64122e+07 2.66567e+07 2.68172e+07 2.68522e+07 2.70158e+07 2.77145e+07 2.77498e+07
          2.78547e+07 2.79716e+07 2.82966e+07 2.87158e+07 2.98282e+07 2.97591e+07 2.66875e+07 2.67226e+07 2.6874e+07 2.7142e+07 2.72488e+07 2.72568e+07
          2.7452e+07 2.81973e+07 2.82258e+07 2.82661e+07 2.83454e+07 2.87586e+07 3.01793e+07 3.04191e+07 3.0331e+07 2.70124e+07 2.70596e+07 2.73263e+07
          2.76384e+07 2.77209e+07 2.78794e+07 2.80336e+07 2.85892e+07 2.8643e+07 2.87288e+07 2.90433e+07 2.9935e+07 3.06695e+07 3.10784e+07 3.08868e+07
          2.7334e+07 2.74184e+07 2.77352e+07 2.80838e+07 2.84445e+07 2.85004e+07 2.86734e+07 2.88373e+07 2.8889e+07 2.8958e+07 2.94499e+07 3.05711e+07
          3.13356e+07 3.17152e+07 3.14043e+07 2.78395e+07 2.7867e+07 2.80882e+07 2.85884e+07 2.87989e+07 2.88469e+07 2.89767e+07 2.90895e+07 2.9144e+07
          2.92062e+07 2.9832e+07 3.10377e+07 3.18186e+07 3.21146e+07 3.19264e+07 2.81803e+07 2.82427e+07 2.8468e+07 2.88775e+07 2.90912e+07 2.91407e+07
          2.92463e+07 2.93382e+07 2.93872e+07 2.94467e+07 3.01419e+07 3.14855e+07 3.22883e+07 3.24985e+07 3.26753e+07 2.84553e+07 2.85147e+07 2.8742e+07
          2.91361e+07 2.9335e+07 2.93847e+07 2.94826e+07 2.95654e+07 2.96149e+07 2.9683e+07 3.0374e+07 3.18618e+07 3.27479e+07 3.2905e+07 3.3389e+07
          2.86811e+07 2.87514e+07 2.89349e+07 2.92962e+07 2.95438e+07 2.96002e+07 2.97035e+07 2.97889e+07 2.98603e+07 2.99511e+07 3.09372e+07 3.25337e+07
          3.31706e+07 3.33395e+07 3.39397e+07 2.88958e+07 2.89697e+07 2.91325e+07 2.9486e+07 2.97387e+07 2.98022e+07 2.99222e+07 3.00198e+07 3.01167e+07
          3.02242e+07 3.15635e+07 3.32262e+07 3.36112e+07 3.3825e+07 3.44761e+07 2.90874e+07 2.91537e+07 2.93542e+07 2.97287e+07 2.99332e+07 3.00086e+07
          3.0151e+07 3.0265e+07 3.0394e+07 3.05321e+07 3.20882e+07 3.37905e+07 3.41185e+07 3.43626e+07 3.48477e+07 2.92584e+07 2.93207e+07 2.94946e+07
          2.9871e+07 3.01381e+07 3.02156e+07 3.03772e+07 3.05111e+07 3.06716e+07 3.0863e+07 3.26728e+07 3.42745e+07 3.46414e+07 3.48593e+07 3.51705e+07
        </DataArray>
        <DataArray type="Float32" Name="velocity[0]" NumberOfComponents="1" format="ascii">
          -1.70813e-08 7.09465e-08 -3.62556e-10 -8.0127e-09 -4.41204e-10 -1.68556e-09 -1.19873e-09 6.67048e-10 1.05604e-09 -5.64479e-10 -1.65521e-09 -2.14975e-09
          -1.49198e-09 -5.05736e-10 -2.27938e-09 -2.5713e-08 1.70091e-07 -4.3402e-10 -2.97322e-08 -1.41299e-10 1.01754e-09 5.4421e-09 3.80447e-09 2.03962e-09
          -2.68982e-09 -3.41134e-09 -9.12918e-09 -5.59075e-09 -1.48249e-09 -6.04264e-09 -1.428e-08 2.08652e-07 9.68415e-10 -1.03569e-08 2.20867e-10 2.57981e-09
          7.99468e-09 5.4228e-09 -6.64951e-10 -6.21852e-09 -3.96666e-09 -2.26693e-08 -8.02991e-09 -3.1503e-09 -9.06919e-09 -8.07369e-09 2.24378e-07 8.89996e-09
          8.00271e-08 -2.75019e-09 -1.63445e-08 -2.02707e-08 -1.38697e-08 -6.08649e-09 -1.22898e-08 -4.87987e-09 -3.78771e-08 -5.72486e-09 -4.64789e-09 -1.24219e-08
          -1.00426e-07 -3.18119e-08 -3.18431e-10 -1.72042e-07 -2.04829e-08 -8.22018e-08 -9.19711e-08 -8.3993e-08 -7.3597e-09 -1.18702e-08 -6.65402e-09 -6.23422e-08
          -2.79161e-09 -4.23695e-09 -1.53715e-08 -2.06127e-07 -2.6441e-07 -9.88252e-09 -3.31611e-07 -4.21435e-08 -2.43365e-07 -1.32281e-07 -2.11566e-07 -4.9005e-09
          -5.05866e-09 -9.74032e-09 -8.90011e-08 -1.58042e-09 -3.34644e-09 -1.73928e-08 -2.05203e-07 -2.24239e-07 -2.59096e-09 -1.04675e-07 -3.79558e-08 -4.16668e-07
          -1.09965e-07 -3.66628e-07 -3.86953e-09 -2.14581e-09 -1.16145e-08 -1.05831e-07 -1.39898e-09 -3.31942e-09 -1.88225e-08 -1.83357e-07 -1.99395e-07 -1.9698e-09
          -1.6488e-08 -2.26146e-08 -4.87519e-07 -6.79468e-08 -5.0626e-07 -3.49548e-09 -1.66985e-09 -1.28639e-08 -1.16847e-07 -1.16302e-09 -3.46711e-09 -2.04544e-08
          -1.63435e-07 -1.74348e-07 -1.99654e-09 -2.08533e-09 -1.55446e-08 -4.95401e-07 -2.661e-08 -6.13564e-07 -2.72514e-09 -1.81423e-09 -2.15568e-08 -1.12423e-07
          -1.06184e-09 -3.16373e-09 -2.26115e-08 -1.31257e-07 -1.59439e-07 -8.13058e-09 -1.60273e-10 -1.14878e-08 -4.79555e-07 -8.53802e-09 -7.14093e-07 -2.17188e-09
          -1.76792e-09 -3.67804e-08 -9.65198e-08 -1.73281e-09 -2.68713e-09 -2.47956e-08 -9.41744e-08 -1.50973e-07 -1.93954e-08 -1.31331e-09 -1.0972e-08 -4.54552e-07
          -2.7712e-09 -7.88262e-07 -4.78242e-09 -2.30632e-09 -4.6262e-08 -8.24144e-08 -5.19036e-09 -3.18111e-09 -2.68213e-08 -7.38107e-08 -1.40798e-07 -2.6856e-08
          -1.07563e-09 -1.72689e-08 -4.31365e-07 -1.81341e-09 -6.89253e-07 -4.86719e-08 -6.88954e-09 -5.15808e-08 -6.77503e-08 -2.08447e-08 -6.0896e-09 -2.91007e-08
          -6.67475e-08 -1.40053e-07 -2.34342e-08 -2.03445e-09 -2.78914e-08 -3.90715e-07 -3.01471e-09 -4.30293e-07 -1.51054e-07 -1.46717e-08 -4.43082e-08 -3.74725e-08
          -4.66568e-08 -1.63147e-08 -3.31099e-08 -6.54047e-08 -1.4721e-07 -1.29533e-08 -4.07935e-09 -3.98208e-08 -3.4885e-07 -4.31542e-09 -3.10056e-07 -1.72194e-07
          -4.44089e-08 -3.48975e-08 -1.19754e-08 -5.40969e-08 -3.79614e-08 -3.48398e-08 -7.24366e-08 -1.34761e-07 -7.16579e-09 -6.76356e-09 -8.40812e-08 -2.82645e-07
          -6.17192e-09 -3.7537e-07 -1.22433e-07 -5.28027e-08 -2.94133e-08 -1.07024e-08 -4.87034e-08 -6.039e-08 -3.22952e-08 -7.99777e-08 -1.08896e-07 -6.16023e-09
          -1.21784e-08 -9.19149e-08 -2.50973e-07 -7.99963e-09 -3.98076e-07 -1.15781e-07 -3.71462e-08 -1.42339e-08 -1.17731e-08 -5.25989e-08 -8.47536e-08 -2.81562e-08
          -5.9904e-08 -1.05193e-07 -6.92703e-09 -1.48464e-08 -7.58122e-08 -2.46829e-07 -6.67736e-09 -3.43255e-07 -1.20463e-07 -5.5599e-08 -4.95239e-09 -7.28181e-09
          -4.07133e-08 -1.22359e-07 -2.2887e-08 -5.3859e-08 -7.78827e-08 -6.71038e-09 -8.50598e-09 -1.05652e-07 -1.85055e-07 -6.22939e-09 -2.72584e-07 -1.35968e-07
          -8.9355e-08 -3.26552e-09 -4.52189e-09 -2.53958e-08 -1.57713e-07 -1.81493e-08 -6.45137e-08 -3.50715e-08 -4.82944e-09 -2.69241e-09 -1.26458e-07 -1.18474e-07
          -6.53353e-09 -2.02792e-07 -1.40612e-07 -1.46268e-07 -1.89054e-09 -3.63898e-09 -3.25318e-08 -1.78939e-07 -1.60791e-08 -5.6095e-08 -2.32983e-08 -2.48139e-09
          -1.03045e-09 -1.30974e-07 -6.62164e-08 -5.40902e-09 -1.51011e-07 -9.28622e-08 -2.60145e-07 -3.31929e-09 -5.12346e-09 -4.82034e-08 -1.88999e-07 -1.74635e-08
          -4.35148e-08 -1.54614e-08 -1.85326e-09 -2.73569e-10 -1.19598e-07 -3.39221e-08 -4.59357e-09 -1.20084e-07 -3.94478e-08 -3.64805e-07 -5.21538e-09 -9.41949e-09
          -5.86672e-08 -1.96908e-07 -2.02049e-08 -2.74931e-08 -7.90404e-09 -2.68574e-09 -1.04512e-09 -8.7396e-08 -2.27287e-08 -4.49571e-09 -1.15158e-07 -2.16217e-08
          -3.87518e-07 -4.7735e-09 -1.81509e-08 -6.41425e-08 -2.05074e-07 -2.5162e-08 -1.28645e-08 -3.16785e-09 -1.20118e-09 -6.88678e-10 -4.32885e-08 -1.68511e-08
          -3.70223e-09 -1.2271e-07 -1.75322e-08 -3.34808e-07 -6.63252e-09 -3.13193e-08 -8.37425e-08 -2.13226e-07 -3.29246e-08 -3.41206e-09 -7.13946e-10 2.57618e-10
          9.1407e-11 -1.01413e-08 -6.41027e-09 -1.35737e-09 -6.27373e-08 -8.18269e-09 -1.44936e-07 -4.37528e-09 -1.89977e-08 -4.99054e-08 -1.09478e-07 -1.84975e-08
        </DataArray>
        <DataArray type="Float32" Name="velocity[1]" NumberOfComponents="1" format="ascii">
          2.65464e-24 1.12942e-23 2.10805e-25 -1.24527e-24 6.85684e-26 0 1.86297e-25 -1.40638e-26 1.43247e-25 4.92939e-24 -3.32465e-24 9.00164e-26
          2.07002e-24 -7.90978e-25 3.53091e-25 -1.31318e-24 4.15095e-24 2.22229e-25 -2.1302e-24 -2.99031e-25 7.3191e-24 6.75202e-25 2.12956e-26 -6.86734e-24
          -2.95481e-25 0 -8.92313e-26 8.72079e-26 9.01377e-28 2.30613e-25 -4.63642e-25 -1.14787e-23 -2.26704e-24 5.14134e-24 -3.75912e-25 0
          6.26555e-25 3.3048e-26 -4.09062e-25 0 5.85094e-24 -9.06211e-24 0 9.63804e-25 -2.42153e-25 -8.90924e-25 1.58162e-23 -1.89209e-24
          -7.95087e-24 5.52949e-25 1.16007e-23 -1.89997e-23 2.54367e-23 -2.9989e-24 1.01126e-24 2.78058e-24 -3.6602e-24 2.67402e-24 -1.13017e-24 8.45142e-25
          -1.94545e-25 -8.12966e-23 7.52951e-24 1.42246e-23 -6.79385e-25 -8.30497e-24 2.68095e-25 -1.77319e-25 -1.23071e-25 -4.77327e-24 3.16702e-24 -5.58278e-24
          -9.72496e-29 1.09611e-25 -1.28301e-24 -2.26655e-25 8.9998e-24 -8.27146e-25 1.1322e-23 3.02392e-25 -1.79816e-23 0 -1.688e-25 1.43391e-25
          3.54503e-25 -2.76244e-25 4.26637e-24 -1.31372e-24 7.76735e-25 1.28037e-24 -1.47982e-24 2.10075e-24 0 1.2539e-23 -1.46853e-24 -2.90719e-23
          -2.7717e-27 -2.83695e-27 -2.09352e-24 1.35112e-27 -6.53974e-28 -5.63028e-28 3.74911e-26 -1.11054e-27 -1.42005e-24 -2.72022e-25 1.4679e-23 1.88928e-24
          3.43336e-24 -1.43505e-27 3.58e-23 -2.12311e-27 -3.24793e-27 8.55114e-26 -2.44852e-26 -2.5128e-24 -8.43786e-24 -1.26324e-27 -3.41394e-25 1.67366e-24
          -1.6701e-24 -9.67078e-24 -1.07391e-25 -2.38124e-24 -3.77121e-25 4.15705e-24 0 0 -6.5475e-25 1.48473e-27 8.40825e-25 2.2691e-24
          -2.69676e-27 4.4094e-26 -1.29237e-27 -1.19906e-23 8.3541e-25 1.67267e-24 -2.19806e-25 -2.7591e-24 5.4496e-24 -1.02827e-23 8.34754e-24 8.70805e-25
          4.99415e-27 -8.26164e-25 2.28522e-24 -8.03836e-25 0 -1.84043e-24 4.27322e-24 8.11297e-26 7.71094e-25 -1.21675e-25 2.23935e-24 3.02343e-27
          -6.83894e-24 6.37498e-24 4.21107e-25 9.19974e-26 1.02366e-24 5.19651e-24 1.96636e-24 -2.86714e-25 1.43357e-25 -5.24352e-24 1.61327e-24 -3.89551e-25
          -1.34351e-26 -5.38196e-25 -3.25091e-23 -6.20071e-27 -1.85642e-23 -3.0944e-24 -6.23848e-25 -3.28716e-24 4.3155e-24 -1.94328e-24 1.07354e-24 -2.1325e-25
          5.12931e-24 1.05378e-23 0 -1.43644e-25 8.4245e-25 4.31068e-24 1.89541e-25 -2.16732e-23 -9.50685e-24 -7.6491e-28 -2.60363e-24 -1.27097e-24
          2.06653e-24 -6.49476e-25 1.11924e-27 -9.49815e-26 8.29864e-28 5.38572e-25 -3.47485e-25 -2.26509e-27 2.85529e-23 7.55725e-27 2.99142e-24 2.28224e-23
          -9.49223e-24 2.60483e-24 4.77413e-24 -8.33936e-24 3.31769e-27 -2.6369e-24 -5.03436e-24 -9.29373e-24 -2.82972e-28 4.04068e-25 5.86856e-24 2.04881e-27
          2.79271e-25 1.05933e-23 -1.52427e-24 0 0 5.90148e-25 5.95699e-24 -8.54254e-25 5.01907e-24 0 1.66505e-24 0
          -1.24559e-24 -4.65195e-24 1.25304e-27 4.77745e-27 -3.63294e-24 2.81837e-27 1.83974e-27 7.75007e-28 5.15661e-24 1.34888e-27 -1.64336e-24 -2.38254e-24
          2.93527e-28 -1.09041e-24 7.333e-29 1.83573e-25 2.1493e-24 -1.26173e-23 0 -1.32511e-23 0 -7.39564e-28 3.57082e-24 -4.47504e-24
          -2.37689e-24 -3.11625e-28 1.56404e-24 0 8.71895e-24 0 1.06242e-24 3.24249e-24 4.92894e-24 1.39343e-25 -6.0962e-24 -5.99233e-24
          -2.67469e-24 2.25842e-25 9.74184e-26 6.1866e-28 -2.07204e-24 -1.25657e-24 4.75884e-24 -2.00109e-24 2.48213e-24 -2.3061e-24 7.45325e-25 1.14836e-23
          -9.19272e-26 -4.7502e-24 1.16443e-23 6.54509e-24 -3.93662e-24 8.86923e-26 1.1119e-24 -1.02505e-28 1.24231e-24 5.62211e-28 -4.19964e-24 9.09101e-25
          -2.06841e-24 -8.61801e-26 -3.56886e-24 -1.64305e-25 -6.59401e-24 -5.98869e-24 1.15288e-23 3.22867e-25 4.23647e-24 1.32448e-24 -4.58263e-25 -1.01288e-24
          -1.15524e-24 7.0886e-25 0 -3.85349e-26 -1.7252e-24 5.62496e-24 -9.88749e-24 9.89087e-24 -6.97404e-24 7.90866e-28 0 0
          3.01935e-25 -6.56472e-28 1.66834e-24 -1.33471e-24 -1.40059e-24 1.29628e-24 -2.18723e-24 -1.30395e-24 -1.62129e-24 2.71953e-26 7.43761e-25 -4.55448e-24
          1.62324e-23 -3.11082e-25 -7.76978e-24 5.48685e-25 1.14851e-24 4.10795e-28 -9.38046e-25 -7.56569e-28 -8.80632e-28 1.32728e-25 -3.5764e-24 6.27695e-25
          -1.53469e-25 1.23897e-23 -5.1342e-24 0 -3.29169e-25 -1.03715e-24 7.88799e-24 -8.91137e-25 0 -5.30983e-25 -7.91282e-28 -4.34726e-25
          7.3772e-25 -1.57495e-24 -2.59582e-24 -4.24579e-25 -3.25221e-24 1.27169e-24 -3.52555e-23 0 3.53373e-23 -2.6017e-23 2.15645e-23 5.42939e-25
        </DataArray>
        <DataArray type="Float32" Name="velocity[2]" NumberOfComponents="1" format="ascii">
          -1.83284e-09 1.14076e-08 -4.47862e-09 -5.18944e-09 -3.27482e-09 -3.26779e-09 -2.98283e-09 -2.59327e-09 -2.53515e-09 -2.76968e-09 -2.74848e-09 -2.51768e-09
          -2.09793e-09 -1.69885e-09 -1.16419e-09 -5.04577e-09 2.76338e-08 -3.67221e-09 -7.96516e-09 -1.94913e-09 -1.86978e-09 -1.41613e-09 -1.93321e-09 -2.23447e-09
          -2.9077e-09 -2.87999e-09 -3.50952e-09 -2.35015e-09 -1.33507e-09 -1.56261e-09 -2.66777e-09 3.60105e-08 -1.08009e-09 -4.62396e-09 -4.22415e-09 -3.51891e-09
          -2.19516e-09 -2.43443e-09 -3.25073e-09 -3.89157e-09 -3.29864e-09 -5.96624e-09 -2.8395e-09 -1.78915e-09 -2.116e-09 -1.5907e-09 3.89793e-08 2.82666e-10
          9.59707e-09 -7.53284e-09 -8.88138e-09 -8.0985e-09 -5.80572e-09 -3.68644e-09 -4.34915e-09 -2.75347e-09 -8.09083e-09 -2.17927e-09 -2.08233e-09 -2.79599e-09
          -1.12533e-08 2.32823e-09 -1.28986e-09 -4.03458e-08 -1.72732e-08 -2.48243e-08 -2.27937e-08 -1.8633e-08 -3.73313e-09 -4.69295e-09 -3.83392e-09 -1.24943e-08
          -9.69315e-10 -1.39474e-09 -3.09309e-09 -3.55748e-08 -4.64379e-08 -3.35096e-09 -6.78466e-08 -2.36801e-08 -5.34114e-08 -2.8705e-08 -4.08134e-08 -2.37455e-09
          -2.54965e-09 -3.35416e-09 -1.66968e-08 -7.87594e-10 -1.15496e-09 -3.36369e-09 -3.68189e-08 -4.12562e-08 -2.59096e-09 -2.43329e-08 -1.68401e-08 -8.12336e-08
          -2.46319e-08 -6.81488e-08 -2.07538e-09 -1.80072e-09 -3.48819e-09 -1.96064e-08 -6.86858e-10 -9.82934e-10 -3.50461e-09 -3.29349e-08 -3.69206e-08 -2.55856e-09
          -5.56652e-09 -7.44545e-09 -8.92514e-08 -1.55973e-08 -9.20229e-08 -1.77246e-09 -1.46074e-09 -3.35536e-09 -2.14451e-08 -9.04023e-10 -1.34051e-09 -3.97108e-09
          -2.93141e-08 -3.21999e-08 -2.21587e-09 -2.33855e-09 -5.00775e-09 -8.97848e-08 -7.53817e-09 -1.10121e-07 -1.20833e-09 -1.07586e-09 -4.07783e-09 -2.00566e-08
          -8.36095e-10 -1.23009e-09 -4.34686e-09 -2.45996e-08 -3.1104e-08 -3.90137e-09 -1.82201e-09 -3.83351e-09 -8.71439e-08 -4.9054e-09 -1.28015e-07 -1.05042e-09
          -9.83813e-10 -6.67222e-09 -1.72352e-08 -1.01596e-09 -1.19164e-09 -4.74528e-09 -1.75092e-08 -2.86504e-08 -5.24125e-09 -1.63545e-09 -3.29227e-09 -8.19271e-08
          -2.76352e-09 -1.40749e-07 -1.88665e-09 -1.26468e-09 -8.87695e-09 -1.54665e-08 -1.96794e-09 -1.28927e-09 -5.03696e-09 -1.3437e-08 -2.59302e-08 -5.88112e-09
          -1.11611e-09 -3.69191e-09 -7.70371e-08 -1.89724e-09 -1.26302e-07 -1.40576e-08 -4.05586e-09 -1.15527e-08 -1.47298e-08 -6.17374e-09 -2.36322e-09 -5.58881e-09
          -1.18184e-08 -2.45702e-08 -4.29617e-09 -9.88927e-10 -5.21165e-09 -7.01905e-08 -3.08344e-09 -8.21121e-08 -3.29208e-08 -5.04989e-09 -1.08071e-08 -1.15507e-08
          -1.3548e-08 -5.9752e-09 -6.71895e-09 -1.15714e-08 -2.58988e-08 -2.48889e-09 -1.26309e-09 -7.161e-09 -6.19565e-08 -1.87395e-09 -5.52609e-08 -3.28434e-08
          -1.16775e-08 -8.87471e-09 -5.00857e-09 -1.3087e-08 -8.35937e-09 -5.83976e-09 -1.22632e-08 -2.35008e-08 -1.86505e-09 -1.82202e-09 -1.33631e-08 -4.87896e-08
          -2.41773e-09 -6.62426e-08 -2.09963e-08 -1.00053e-08 -7.01898e-09 -3.9683e-09 -1.04513e-08 -1.10207e-08 -5.15165e-09 -1.41093e-08 -1.97507e-08 -2.15122e-09
          -3.00059e-09 -1.84643e-08 -4.71571e-08 -3.36147e-09 -7.27677e-08 -2.34301e-08 -9.30477e-09 -5.71596e-09 -5.93172e-09 -1.30229e-08 -1.58666e-08 -4.12739e-09
          -1.18944e-08 -2.08609e-08 -3.13531e-09 -4.54382e-09 -1.46163e-08 -4.51786e-08 -4.01154e-09 -6.42362e-08 -2.56933e-08 -1.35025e-08 -3.9748e-09 -4.59378e-09
          -1.16564e-08 -2.34038e-08 -3.11473e-09 -8.56883e-09 -1.35929e-08 -2.82541e-09 -3.46659e-09 -1.99945e-08 -3.48762e-08 -5.07093e-09 -5.30425e-08 -2.91751e-08
          -1.94346e-08 -3.61198e-09 -3.89845e-09 -7.59933e-09 -2.87105e-08 -2.53948e-09 -1.15921e-08 -7.04443e-09 -2.23589e-09 -1.98948e-09 -2.3591e-08 -2.3296e-08
          -4.94164e-09 -4.03799e-08 -3.07854e-08 -3.07493e-08 -3.74383e-09 -4.12787e-09 -8.7805e-09 -3.28048e-08 -2.80337e-09 -1.02329e-08 -4.95821e-09 -1.55845e-09
          -1.46067e-09 -2.444e-08 -1.41074e-08 -4.4705e-09 -3.07249e-08 -2.33483e-08 -5.21899e-08 -3.80416e-09 -3.86738e-09 -1.07726e-08 -3.46702e-08 -3.57045e-09
          -8.16893e-09 -3.9463e-09 -1.72343e-09 -1.3809e-09 -2.30018e-08 -8.92314e-09 -4.19615e-09 -2.4828e-08 -1.1763e-08 -6.88096e-08 -4.19382e-09 -4.81241e-09
          -1.32326e-08 -3.65216e-08 -3.98382e-09 -5.42078e-09 -2.68946e-09 -1.89973e-09 -1.56549e-09 -1.78924e-08 -7.70176e-09 -4.56836e-09 -2.39494e-08 -7.50407e-09
          -7.25102e-08 -5.34631e-09 -7.33184e-09 -1.48167e-08 -3.90272e-08 -5.66731e-09 -2.67143e-09 -1.45182e-09 -1.34152e-09 -1.44441e-09 -1.02275e-08 -6.98153e-09
          -4.878e-09 -2.58159e-08 -7.26659e-09 -6.50802e-08 -8.87368e-09 -1.26913e-08 -2.0463e-08 -4.12682e-08 -7.16251e-09 -8.29435e-10 -6.17394e-10 -4.60214e-10
          -4.63589e-10 -2.8051e-09 -2.98801e-09 -2.433e-09 -1.49658e-08 -7.51114e-09 -3.79112e-08 -1.62576e-08 -1.42683e-08 -1.63286e-08 -2.29091e-08 -3.84399e-09
        </DataArray>
        <DataArray type="Float32" Name="z[0]" NumberOfComponents="1" format="ascii">
          0.150578 0.150579 0.15058 0.150582 0.150582 0.150583 0.150584 0.150585 0.150585 0.150586 0.150587 0.150588
          0.150589 0.150591 0.150596 0.150581 0.150582 0.150583 0.150585 0.150586 0.150587 0.150587 0.150588 0.150588
          0.150589 0.15059 0.150591 0.150593 0.150595 0.150599 0.150584 0.150585 0.150587 0.150588 0.150589 0.15059
          0.15059 0.150591 0.150592 0.150593 0.150593 0.150595 0.150596 0.150598 0.150602 0.150588 0.150589 0.15059
          0.150591 0.150592 0.150593 0.150594 0.150594 0.150595 0.150596 0.150597 0.150598 0.150599 0.150601 0.150605
          0.150591 0.150592 0.150593 0.150594 0.150595 0.150596 0.150597 0.150597 0.150598 0.150599 0.1506 0.150601
          0.150602 0.150604 0.150609 0.150594 0.150595 0.150596 0.150597 0.150598 0.150599 0.1506 0.1506 0.150601
          0.150602 0.150603 0.150604 0.150605 0.150607 0.150612 0.150597 0.150598 0.150599 0.150601 0.150601 0.150602