<?xml version="1.0"?>
<VTKFile type="UnstructuredGrid" version="0.1" byte_order="LittleEndian">
  <UnstructuredGrid>
    <Piece NumberOfCells="100" NumberOfPoints="404">
      <CellData Scalars="pressure[0]">
        <DataArray type="Float32" Name="pressure[0]" NumberOfComponents="1" format="ascii">
          5.76436e+06 5.76487e+06 5.76538e+06 5.76588e+06 5.7664e+06 5.7669e+06 5.76742e+06 5.76792e+06 5.76844e+06 5.76895e+06 5.76946e+06 5.76997e+06
          5.77048e+06 5.77099e+06 5.7715e+06 5.77201e+06 5.77252e+06 5.77303e+06 5.77354e+06 5.77405e+06 5.77456e+06 5.77507e+06 5.77558e+06 5.77609e+06
          5.7766e+06 5.77711e+06 5.77762e+06 5.77814e+06 5.77865e+06 5.77916e+06 5.77967e+06 5.78018e+06 5.78075e+06 5.79044e+06 5.8005e+06 5.81055e+06
          5.82059e+06 5.83061e+06 5.84062e+06 5.85062e+06 5.8606e+06 5.87057e+06 5.88053e+06 5.89047e+06 5.9004e+06 5.91032e+06 5.92023e+06 5.93012e+06
          5.94001e+06 5.94988e+06 5.95973e+06 5.96958e+06 5.97941e+06 5.98923e+06 5.99904e+06 6.00883e+06 6.01861e+06 6.02838e+06 6.03814e+06 6.04788e+06
          6.05761e+06 6.06734e+06 6.07705e+06 6.08675e+06 6.09644e+06 6.10612e+06 6.11578e+06 6.12544e+06 6.13509e+06 6.14472e+06 6.15434e+06 6.16396e+06
          6.17356e+06 6.18315e+06 6.19274e+06 6.20231e+06 6.21188e+06 6.22143e+06 6.23098e+06 6.24051e+06 6.25004e+06 6.25955e+06 6.26906e+06 6.27855e+06
          6.28803e+06 6.29751e+06 6.30697e+06 6.31643e+06 6.32587e+06 6.33531e+06 6.34475e+06 6.35417e+06 6.36359e+06 6.373e+06 6.38254e+06 6.39249e+06
          6.40265e+06 6.41283e+06 6.42301e+06 6.43319e+06
        </DataArray>
        <DataArray type="Float32" Name="pressure[1]" NumberOfComponents="1" format="ascii">
          5.76436e+06 5.76487e+06 5.76538e+06 5.76588e+06 5.7664e+06 5.7669e+06 5.76742e+06 5.76792e+06 5.76844e+06 5.76895e+06 5.76946e+06 5.76997e+06
          5.77048e+06 5.77099e+06 5.7715e+06 5.77201e+06 5.77252e+06 5.77303e+06 5.77354e+06 5.77405e+06 5.77456e+06 5.77507e+06 5.77558e+06 5.77609e+06
          5.7766e+06 5.77711e+06 5.77762e+06 5.77814e+06 5.77865e+06 5.77916e+06 5.77967e+06 5.78018e+06 5.78075e+06 5.79044e+06 5.8005e+06 5.81055e+06
          5.82059e+06 5.83061e+06 5.84062e+06 5.85062e+06 5.8606e+06 5.87057e+06 5.88053e+06 5.89047e+06 5.9004e+06 5.91032e+06 5.92023e+06 5.93012e+06
          5.94001e+06 5.94988e+06 5.95973e+06 5.96958e+06 5.97941e+06 5.98923e+06 5.99904e+06 6.00883e+06 6.01861e+06 6.02838e+06 6.03814e+06 6.04788e+06
          6.05761e+06 6.06734e+06 6.07705e+06 6.08675e+06 6.09644e+06 6.10612e+06 6.11578e+06 6.12544e+06 6.13509e+06 6.14472e+06 6.15434e+06 6.16396e+06
          6.17356e+06 6.18315e+06 6.19274e+06 6.20231e+06 6.21188e+06 6.22143e+06 6.23098e+06 6.24051e+06 6.25004e+06 6.25955e+06 6.26906e+06 6.27855e+06
          6.28803e+06 6.29751e+06 6.30697e+06 6.31643e+06 6.32587e+06 6.33531e+06 6.34475e+06 6.35417e+06 6.36359e+06 6.373e+06 6.38254e+06 6.39249e+06
          6.40265e+06 6.41283e+06 6.42301e+06 6.43319e+06
        </DataArray>
        <DataArray type="Float32" Name="pressure[2]" NumberOfComponents="1" format="ascii">
          5.76436e+06 5.76487e+06 5.76538e+06 5.76588e+06 5.7664e+06 5.7669e+06 5.76742e+06 5.76792e+06 5.76844e+06 5.76895e+06 5.76946e+06 5.76997e+06
          5.77048e+06 5.77099e+06 5.7715e+06 5.77201e+06 5.77252e+06 5.77303e+06 5.77354e+06 5.77405e+06 5.77456e+06 5.77507e+06 5.77558e+06 5.77609e+06
          5.7766e+06 5.77711e+06 5.77762e+06 5.77814e+06 5.77865e+06 5.77916e+06 5.77967e+06 5.78018e+06 5.78075e+06 5.79044e+06 5.8005e+06 5.81055e+06
          5.82059e+06 5.83061e+06 5.84062e+06 5.85062e+06 5.8606e+06 5.87057e+06 5.88053e+06 5.89047e+06 5.9004e+06 5.91032e+06 5.92023e+06 5.93012e+06
          5.94001e+06 5.94988e+06 5.95973e+06 5.96958e+06 5.97941e+06 5.98923e+06 5.99904e+06 6.00883e+06 6.01861e+06 6.02838e+06 6.03814e+06 6.04788e+06
          6.05761e+06 6.06734e+06 6.07705e+06 6.08675e+06 6.09644e+06 6.10612e+06 6.11578e+06 6.12544e+06 6.13509e+06 6.14472e+06 6.15434e+06 6.16396e+06
          6.17356e+06 6.18315e+06 6.19274e+06 6.20231e+06 6.21188e+06 6.22143e+06 6.23098e+06 6.24051e+06 6.25004e+06 6.25955e+06 6.26906e+06 6.27855e+06
          6.28803e+06 6.29751e+06 6.30697e+06 6.31643e+06 6.32587e+06 6.33531e+06 6.34475e+06 6.35417e+06 6.36359e+06 6.373e+06 6.38254e+06 6.39249e+06
          6.40265e+06 6.41283e+06 6.42301e+06 6.43319e+06
        </DataArray>
        <DataArray type="Float32" Name="velocity[0]" NumberOfComponents="1" format="ascii">
          0 0 0 0 0 0 0 0 0 0 0 0
          0 0 0 0 0 0 0 0 0 0 0 0
          0 0 0 0 0 0 0 0 0 0 0 0
          0 0 0 0 0 0 0 0 0 0 0 0
          0 0 0 0 0 0 0 0 0 0 0 0
          0 0 0 0 0 0 0 0 0 0 0 0
          0 0 0 0 0 0 0 0 0 0 0 0
          0 0 0 0 0 0 0 0 0 0 0 0
          0 0 0 0
        </DataArray>
        <DataArray type="Float32" Name="velocity[1]" NumberOfComponents="1" format="ascii">
          0 0 0 0 0 0 0 0 0 0 0 0
          0 0 0 0 0 0 0 0 0 0 0 0
          0 0 0 0 0 0 0 0 0 0 0 0
          0 0 0 0 0 0 0 0 0 0 0 0
          0 0 0 0 0 0 0 0 0 0 0 0
          0 0 0 0 0 0 0 0 0 0 0 0
          0 0 0 0 0 0 0 0 0 0 0 0
          0 0 0 0 0 0 0 0 0 0 0 0
          0 0 0 0
        </DataArray>
        <DataArray type="Float32" Name="velocity[2]" NumberOfComponents="1" format="ascii">
          1.96291e-12 5.88854e-12 9.81379e-12 1.37386e-11 1.76629e-11 2.15868e-11 2.55101e-11 2.94328e-11 3.3355e-11 3.72765e-11 4.11974e-11 4.51175e-11
          4.9037e-11 5.29556e-11 5.68735e-11 6.07906e-11 6.47069e-11 6.86222e-11 7.25366e-11 7.645e-11 8.03625e-11 8.4274e-11 8.81844e-11 9.20937e-11
          9.60019e-11 9.9909e-11 1.03815e-10 1.07719e-10 1.11623e-10 1.15525e-10 1.19426e-10 1.0813e-10 9.71737e-11 5.31473e-11 3.52104e-11 6.64664e-11
          6.67935e-11 5.7957e-11 4.35517e-11 2.82302e-11 1.76529e-11 1.66562e-11 2.69052e-11 4.50447e-11 6.30348e-11 7.17636e-11 6.59109e-11 4.67743e-11
          2.09661e-11 -4.21694e-12 -2.50024e-11 -4.20909e-11 -5.85983e-11 -7.70889e-11 -9.7276e-11 -1.14949e-10 -1.22622e-10 -1.12551e-10 -8.16218e-11 -3.55577e-11
          1.11086e-11 4.07671e-11 4.15045e-11 1.34835e-11 -3.09682e-11 -7.28431e-11 -9.38253e-11 -8.29336e-11 -4.15669e-11 1.50395e-11 6.3305e-11 8.36122e-11
          7.201e-11 4.12207e-11 9.16783e-12 -1.42805e-11 -3.02513e-11 -4.35144e-11 -5.49622e-11 -6.10487e-11 -5.8423e-11 -4.81468e-11 -3.56802e-11 -2.63664e-11
          -2.033e-11 -1.28147e-11 -1.06795e-12 1.00633e-11 1.1968e-11 1.64172e-12 -1.50655e-11 -2.89879e-11 -3.39925e-11 -2.93974e-11 -1.8349e-11 -6.82075e-12
          -9.68201e-13 -8.93903e-15 8.20058e-16 -2.06706e-17
        </DataArray>
        <DataArray type="Float32" Name="z[0]" NumberOfComponents="1" format="ascii">
          0 0 0 0 0 0 0 0 0 0 0 0
          0 0 0 0 0 0 0 0 0 0 0 0
          0 0 0 0 0 0 0 0 9.20101e-07 0.355686 0.798098 0.792863
          0.776 0.759228 0.742681 0.726345 0.710216 0.694324 0.678751 0.663625 0.64905 0.635079 0.621653 0.608612
          0.595767 0.583005 0.570329 0.557826 0.545594 0.533687 0.522092 0.510748 0.499583 0.488568 0.477752 0.467277
          0.457318 0.447992 0.439273 0.430975 0.422826 0.414576 0.406089 0.397386 0.388639 0.380115 0.372059 0.364574
          0.357564 0.350801 0.344084 0.337341 0.330601 0.323899 0.317227 0.310559 0.303903 0.297322 0.290905 0.28471
          0.278737 0.272955 0.267357 0.261984 0.256869 0.251974 0.247211 0.242567 0.23877 0.24503 0.354718 0.768277
          0.979268 0.999125 0.999979 1
        </DataArray>
        <DataArray type="Float32" Name="z[1]" NumberOfComponents="1" format="ascii">
          0 0 0 0 0 0 0 2.88322e-18 0 0 0 0
          0 0 0 0 0 0 0 0 0 0 0 0
          0 0 2.95029e-17 0 0 0 0 0 0.369244 0.650143 0.19601 0.201546
          0.217928 0.23428 0.25048 0.266506 0.282307 0.297795 0.312849 0.327351 0.341266 0.35464 0.36762 0.380391
          0.393092 0.40576 0.418336 0.430726 0.442866 0.454741 0.466377 0.477799 0.488986 0.499844 0.51022 0.519969
          0.52905 0.537585 0.545839 0.55411 0.562602 0.571342 0.580177 0.588832 0.597012 0.604543 0.611479 0.618098
          0.624734 0.631566 0.638546 0.645522 0.652411 0.659245 0.666077 0.672882 0.679556 0.685988 0.692145 0.698078
          0.703848 0.709424 0.714707 0.719673 0.724471 0.729317 0.734292 0.73924 0.743268 0.737289 0.630123 0.226319
          0.0202479 0.000853847 2.08805e-05 3.31766e-07
        </DataArray>
        <DataArray type="Float32" Name="z[2]" NumberOfComponents="1" format="ascii">
          68.3108 68.3169 68.3229 68.329 68.335 68.3411 68.3471 68.3532 68.3593 68.3653 68.3714 68.3774
          68.3835 68.3896 68.3956 68.4017 68.4078 68.4138 68.4199 68.426 68.432 68.4381 68.4442 68.4502
          68.4563 68.4624 68.4684 68.4745 68.4806 68.4866 68.4927 65.643 65.585 35.2527 10.8889 11.3497
          12.4286 13.5127 14.5827 15.6301 16.6533 17.6586 18.6573 19.6608 20.6753 21.6951 22.7046 23.6847
          24.6203 25.5045 26.3358 27.114 27.8357 28.4937 29.08 29.5925 30.0425 30.4607 30.8953 31.3979
          32.0006 32.6952 33.4287 34.122 34.7033 35.1392 35.4522 35.7178 36.0416 36.519 37.1882 38.0034
          38.8543 39.6261 40.2576 40.7539 41.1499 41.469 41.7158 41.8977 42.043 42.1968 42.396 42.6472
          42.9301 43.2295 43.5634 43.9637 44.4214 44.8635 45.2013 45.3931 45.4255 44.83 38.1705 13.6827
          1.22288 0.0515576 0.00126174 2.00208e-05
        </DataArray>
        <DataArray type="Float32" Name="sat[0]" NumberOfComponents="1" format="ascii">
          0 0 0 0 0 0 0 0 0 0 0 0
          0 0 0 0 0 0 0 0 0 0 0 0
          0 0 0 0 0 0 0 0 9.20226e-07 0.348712 0.79927 0.793619
          0.77675 0.759924 0.743275 0.726824 0.710605 0.694686 0.679165 0.664155 0.649707 0.635812 0.622367 0.609209
          0.596192 0.583253 0.570428 0.557805 0.545465 0.533441 0.521716 0.51025 0.499014 0.488026 0.477364 0.467149
          0.457481 0.448368 0.439699 0.431271 0.422869 0.41435 0.405693 0.396994 0.388438 0.380223 0.372468 0.365147
          0.358112 0.351185 0.344272 0.337377 0.330538 0.323761 0.317021 0.310307 0.303649 0.297114 0.290764 0.284626
          0.278686 0.272932 0.267384 0.262074 0.256986 0.252052 0.247203 0.242473 0.23863 0.24489 0.354595 0.768164
          0.979257 0.999125 0.999979 1
        </DataArray>
        <DataArray type="Float32" Name="sat[1]" NumberOfComponents="1" format="ascii">
          0 0 0 0 0 0 0 2.96e-18 0 0 0 0
          0 0 0 0 0 0 0 0 0 0 0 0
          0 0 3.02899e-17 0 0 0 0 0 0.37915 0.651288 0.20073 0.206381
          0.22325 0.240076 0.256725 0.273176 0.289395 0.305314 0.320835 0.335845 0.350293 0.364188 0.377633 0.390791
          0.403808 0.416747 0.429572 0.442195 0.454535 0.466559 0.478284 0.48975 0.500986 0.511974 0.522636 0.532851
          0.54252 0.551632 0.560301 0.568729 0.577131 0.58565 0.594307 0.603006 0.611562 0.619777 0.627532 0.634853
          0.641888 0.648815 0.655728 0.662623 0.669462 0.676239 0.682979 0.689693 0.696351 0.702886 0.709236 0.715374
          0.721314 0.727068 0.732616 0.737926 0.743014 0.747948 0.752797 0.757527 0.76137 0.75511 0.645405 0.231836
          0.0207432 0.000874722 2.13912e-05 3.39859e-07
        </DataArray>
        <DataArray type="Float32" Name="sat[2]" NumberOfComponents="1" format="ascii">
          1 1 1 1 1 1 1 1 1 1 1 1
          1 1 1 1 1 1 1 1 1 1 1 1
          1 1 1 1 1 1 1 1 0.620849 0 0 0
          0 0 0 0 0 0 0 0 0 0 0 0
          0 0 0 0 0 0 0 0 0 0 0 0
          0 0 0 0 0 0 0 0 0 0 0 0
          0 0 0 0 0 0 0 0 0 0 0 0
          0 0 0 0 0 0 0 0 0 0 0 0
          0 0 0 0
        </DataArray>
        <DataArray type="Float32" Name="massFrac[0]" NumberOfComponents="1" format="ascii">
          0 0 0 0 0 0 0 0 0 0 0 0
          0 0 0 0 0 0 0 0 0 0 0 0
          0 0 0 0 0 0 0 0 2.54488e-06 0.381039 0.820681 0.815464
          0.799901 0.784307 0.768809 0.75343 0.738203 0.723193 0.708494 0.694211 0.680402 0.667063 0.654106 0.641383
          0.628759 0.616174 0.603664 0.591315 0.579206 0.567375 0.555808 0.544469 0.533328 0.5224 0.511759 0.501521
          0.491787 0.482574 0.473781 0.465216 0.456673 0.44801 0.439197 0.430325 0.421568 0.413119 0.405102 0.397501
          0.390178 0.382965 0.375767 0.368586 0.361459 0.35439 0.347353 0.340334 0.333363 0.326505 0.319824 0.313349
          0.307069 0.300973 0.295083 0.289429 0.284 0.278729 0.273548 0.268499 0.2644 0.271107 0.386555 0.791679
          0.981866 0.999237 0.999981 1
        </DataArray>
        <DataArray type="Float32" Name="massFrac[1]" NumberOfComponents="1" format="ascii">
          0 0 0 0 0 0 0 4.88437e-17 0 0 0 0
          0 0 0 0 0 0 0 0 0 0 0 0
          0 0 4.98959e-16 0 0 0 0 0 0.867006 0.591273 0.17111 0.175978
          0.190706 0.205459 0.220123 0.234684 0.249106 0.263322 0.277229 0.29071 0.303708 0.316231 0.32838 0.340318
          0.352192 0.364064 0.3759 0.387614 0.399129 0.410416 0.421495 0.432403 0.443159 0.453722 0.463978 0.473773
          0.482984 0.491606 0.499786 0.50778 0.515848 0.524151 0.532692 0.541318 0.54977 0.557783 0.565213 0.572121
          0.578738 0.58532 0.592001 0.598768 0.605556 0.612345 0.619159 0.626004 0.632826 0.639523 0.646003 0.65224
          0.658258 0.66408 0.669667 0.674963 0.679993 0.684888 0.689782 0.694663 0.698722 0.692528 0.582949 0.197984
          0.0172349 0.000724947 1.77264e-05 2.81649e-07
        </DataArray>
        <DataArray type="Float32" Name="massFrac[2]" NumberOfComponents="1" format="ascii">
          1 1 1 1 1 1 1 1 1 1 1 1
          1 1 1 1 1 1 1 1 1 1 1 1
          1 1 1 1 1 1 1 1 0.132991 0.0276874 0.00820902 0.0085581
          0.00939257 0.010234 0.0110673 0.0118863 0.0126904 0.0134846 0.0142778 0.0150785 0.0158901 0.0167066 0.0175146 0.0182992
          0.0190497 0.0197622 0.0204364 0.0210718 0.0216647 0.0222085 0.0226966 0.0231279 0.0235131 0.0238784 0.0242629 0.024706
          0.0252293 0.0258205 0.0264332 0.0270038 0.027479 0.0278396 0.0281106 0.0283567 0.0286623 0.0290983 0.0296856 0.0303782
          0.031084 0.0317151 0.0322321 0.0326458 0.0329846 0.0332646 0.033488 0.0336619 0.0338114 0.0339726 0.0341722 0.0344115
          0.0346729 0.0349466 0.0352502 0.0356081 0.0360069 0.0363837 0.0366695 0.0368374 0.0368781 0.0363646 0.030496 0.0103369
          0.000898921 3.78032e-05 9.25035e-07 1.4678e-08
        </DataArray>
        <DataArray type="Float32" Name="total fl. vol." NumberOfComponents="1" format="ascii">
          1 1 1 1 1 1 1 1 1 1 1 1
          1 1 1 1 1 1 1 1 1 1 1 1
          1 1 1 1 1 1 1 0.958309 0.999865 1.02 0.998534 0.999048
          0.999034 0.999085 0.999201 0.999341 0.999452 0.999478 0.99939 0.999202 0.998988 0.998846 0.998853 0.999019
          0.999287 0.999575 0.999826 1.00004 1.00024 1.00046 1.00072 1.00097 1.00114 1.00111 1.00081 1.00027
          0.999645 0.999163 0.99903 0.999313 0.999899 1.00054 1.00098 1.00099 1.00052 0.999714 0.998902 0.99843
          0.99847 0.998906 0.999454 0.999893 1.00019 1.00043 1.00065 1.00081 1.00084 1.0007 1.00048 1.0003
          1.00019 1.00008 0.999897 0.999659 0.999545 0.99969 1.00003 1.00039 1.00058 1.00057 1.00035 1.00015
          1.00001 1 1 1
        </DataArray>
      </CellData>
      <Points>
        <DataArray type="Float32" Name="Coordinates" NumberOfComponents="3" format="ascii">
          0 0 0 1 0 0 0 1 0 1 1 0
          0 0 1 1 0 1 0 1 1 1 1 1
          0 0 2 1 0 2 0 1 2 1 1 2
          0 0 3 1 0 3 0 1 3 1 1 3
          0 0 4 1 0 4 0 1 4 1 1 4
          0 0 5 1 0 5 0 1 5 1 1 5
          0 0 6 1 0 6 0 1 6 1 1 6
          0 0 7 1 0 7 0 1 7 1 1 7
          0 0 8 1 0 8 0 1 8 1 1 8
          0 0 9 1 0 9 0 1 9 1 1 9
          0 0 10 1 0 10 0 1 10 1 1 10
          0 0 11 1 0 11 0 1 11 1 1 11
          0 0 12 1 0 12 0 1 12 1 1 12
          0 0 13 1 0 13 0 1 13 1 1 13
          0 0 14 1 0 14 0 1 14 1 1 14
          0 0 15 1 0 15 0 1 15 1 1 15
          0 0 16 1 0 16 0 1 16 1 1 16
          0 0 17 1 0 17 0 1 17 1 1 17
          0 0 18 1 0 18 0 1 18 1 1 18
          0 0 19 1 0 19 0 1 19 1 1 19
          0 0 20 1 0 20 0 1 20 1 1 20
          0 0 21 1 0 21 0 1 21 1 1 21
          0 0 22 1 0 22 0 1 22 1 1 22
          0 0 23 1 0 23 0 1 23 1 1 23
          0 0 24 1 0 24 0 1 24 1 1 24
          0 0 25 1 0 25 0 1 25 1 1 25
          0 0 26 1 0 26 0 1 26 1 1 26
          0 0 27 1 0 27 0 1 27 1 1 27
          0 0 28 1 0 28 0 1 28 1 1 28
          0 0 29 1 0 29 0 1 29 1 1 29
          0 0 30 1 0 30 0 1 30 1 1 30
          0 0 31 1 0 31 0 1 31 1 1 31
          0 0 32 1 0 32 0 1 32 1 1 32
          0 0 33 1 0 33 0 1 33 1 1 33
          0 0 34 1 0 34 0 1 34 1 1 34
          0 0 35 1 0 35 0 1 35 1 1 35
          0 0 36 1 0 36 0 1 36 1 1 36
          0 0 37 1 0 37 0 1 37 1 1 37
          0 0 38 1 0 38 0 1 38 1 1 38
          0 0 39 1 0 39 0 1 39 1 1 39
          0 0 40 1 0 40 0 1 40 1 1 40
          0 0 41 1 0 41 0 1 41 1 1 41
          0 0 42 1 0 42 0 1 42 1 1 42
          0 0 43 1 0 43 0 1 43 1 1 43
          0 0 44 1 0 44 0 1 44 1 1 44
          0 0 45 1 0 45 0 1 45 1 1 45
          0 0 46 1 0 46 0 1 46 1 1 46
          0 0 47 1 0 47 0 1 47 1 1 47
          0 0 48 1 0 48 0 1 48 1 1 48
          0 0 49 1 0 49 0 1 49 1 1 49
          0 0 50 1 0 50 0 1 50 1 1 50
          0 0 51 1 0 51 0 1 51 1 1 51
          0 0 52 1 0 52 0 1 52 1 1 52
          0 0 53 1 0 53 0 1 53 1 1 53
          0 0 54 1 0 54 0 1 54 1 1 54
          0 0 55 1 0 55 0 1 55 1 1 55
          0 0 56 1 0 56 0 1 56 1 1 56
          0 0 57 1 0 57 0 1 57 1 1 57
          0 0 58 1 0 58 0 1 58 1 1 58
          0 0 59 1 0 59 0 1 59 1 1 59
          0 0 60 1 0 60 0 1 60 1 1 60
          0 0 61 1 0 61 0 1 61 1 1 61
          0 0 62 1 0 62 0 1 62 1 1 62
          0 0 63 1 0 63 0 1 63 1 1 63
          0 0 64 1 0 64 0 1 64 1 1 64
          0 0 65 1 0 65 0 1 65 1 1 65
          0 0 66 1 0 66 0 1 66 1 1 66
          0 0 67 1 0 67 0 1 67 1 1 67
          0 0 68 1 0 68 0 1 68 1 1 68
          0 0 69 1 0 69 0 1 69 1 1 69
          0 0 70 1 0 70 0 1 70 1 1 70
          0 0 71 1 0 71 0 1 71 1 1 71
          0 0 72 1 0 72 0 1 72 1 1 72
          0 0 73 1 0 73 0 1 73 1 1 73
          0 0 74 1 0 74 0 1 74 1 1 74
          0 0 75 1 0 75 0 1 75 1 1 75
          0 0 76 1 0 76 0 1 76 1 1 76
          0 0 77 1 0 77 0 1 77 1 1 77
          0 0 78 1 0 78 0 1 78 1 1 78
          0 0 79 1 0 79 0 1 79 1 1 79
          0 0 80 1 0 80 0 1 80 1 1 80
          0 0 81 1 0 81 0 1 81 1 1 81
          0 0 82 1 0 82 0 1 82 1 1 82
          0 0 83 1 0 83 0 1 83 1 1 83
          0 0 84 1 0 84 0 1 84 1 1 84
          0 0 85 1 0 85 0 1 85 1 1 85
          0 0 86 1 0 86 0 1 86 1 1 86
          0 0 87 1 0 87 0 1 87 1 1 87
          0 0 88 1 0 88 0 1 88 1 1 88
          0 0 89 1 0 89 0 1 89 1 1 89
          0 0 90 1 0 90 0 1 90 1 1 90
          0 0 91 1 0 91 0 1 91 1 1 91
          0 0 92 1 0 92 0 1 92 1 1 92
          0 0 93 1 0 93 0 1 93 1 1 93
          0 0 94 1 0 94 0 1 94 1 1 94
          0 0 95 1 0 95 0 1 95 1 1 95
          0 0 96 1 0 96 0 1 96 1 1 96
          0 0 97 1 0 97 0 1 97 1 1 97
          0 0 98 1 0 98 0 1 98 1 1 98
          0 0 99 1 0 99 0 1 99 1 1 99
          0 0 100 1 0 100 0 1 100 1 1 100
        </DataArray>
      </Points>
      <Cells>
        <DataArray type="Int32" Name="connectivity" NumberOfComponents="1" format="ascii">
          0 1 3 2 4 5 7 6 4 5 7 6
          8 9 11 10 8 9 11 10 12 13 15 14
          12 13 15 14 16 17 19 18 16 17 19 18
          20 21 23 22 20 21 23 22 24 25 27 26
          24 25 27 26 28 29 31 30 28 29 31 30
          32 33 35 34 32 33 35 34 36 37 39 38
          36 37 39 38 40 41 43 42 40 41 43 42
          44 45 47 46 44 45 47 46 48 49 51 50
          48 49 51 50 52 53 55 54 52 53 55 54
          56 57 59 58 56 57 59 58 60 61 63 62
          60 61 63 62 64 65 67 66 64 65 67 66
          68 69 71 70 68 69 71 70 72 73 75 74
          72 73 75 74 76 77 79 78 76 77 79 78
          80 81 83 82 80 81 83 82 84 85 87 86
          84 85 87 86 88 89 91 90 88 89 91 90
          92 93 95 94 92 93 95 94 96 97 99 98
          96 97 99 98 100 101 103 102 100 101 103 102
          104 105 107 106 104 105 107 106 108 109 111 110
          108 109 111 110 112 113 115 114 112 113 115 114
          116 117 119 118 116 117 119 118 120 121 123 122
          120 121 123 122 124 125 127 126 124 125 127 126
          128 129 131 130 128 129 131 130 132 133 135 134
          132 133 135 134 136 137 139 138 136 137 139 138
          140 141 143 142 140 141 143 142 144 145 147 146
          144 145 147 146 148 149 151 150 148 149 151 150
          152 153 155 154 152 153 155 154 156 157 159 158
          156 157 159 158 160 161 163 162 160 161 163 162
          164 165 167 166 164 165 167 166 168 169 171 170
          168 169 171 170 172 173 175 174 172 173 175 174
          176 177 179 178 176 177 179 178 180 181 183 182
          180 181 183 182 184 185 187 186 184 185 187 186
          188 189 191 190 188 189 191 190 192 193 195 194
          192 193 195 194 196 197 199 198 196 197 199 198
          200 201 203 202 200 201 203 202 204 205 207 206
          204 205 207 206 208 209 211 210 208 209 211 210
          212 213 215 214 212 213 215 214 216 217 219 218
          216 217 219 218 220 221 223 222 220 221 223 222
          224 225 227 226 224 225 227 226 228 229 231 230
          228 229 231 230 232 233 235 234 232 233 235 234
          236 237 239 238 236 237 239 238 240 241 243 242
          240 241 243 242 244 245 247 246 244 245 247 246
          248 249 251 250 248 249 251 250 252 253 255 254
          252 253 255 254 256 257 259 258 256 257 259 258
          260 261 263 262 260 261 263 262 264 265 267 266
          264 265 267 266 268 269 271 270 268 269 271 270
          272 273 275 274 272 273 275 274 276 277 279 278
          276 277 279 278 280 281 283 282 280 281 283 282
          284 285 287 286 284 285 287 286 288 289 291 290
          288 289 291 290 292 293 295 294 292 293 295 294
          296 297 299 298 296 297 299 298 300 301 303 302
          300 301 303 302 304 305 307 306 304 305 307 306
          308 309 311 310 308 309 311 310 312 313 315 314
          312 313 315 314 316 317 319 318 316 317 319 318
          320 321 323 322 320 321 323 322 324 325 327 326
          324 325 327 326 328 329 331 330 328 329 331 330
          332 333 335 334 332 333 335 334 336 337 339 338
          336 337 339 338 340 341 343 342 340 341 343 342
          344 345 347 346 344 345 347 346 348 349 351 350
          348 349 351 350 352 353 355 354 352 353 355 354
          356 357 359 358 356 357 359 358 360 361 363 362
          360 361 363 362 364 365 367 366 364 365 367 366
          368 369 371 370 368 369 371 370 372 373 375 374
          372 373 375 374 376 377 379 378 376 377 379 378
          380 381 383 382 380 381 383 382 384 385 387 386
          384 385 387 386 388 389 391 390 388 389 391 390
          392 393 395 394 392 393 395 394 396 397 399 398
          396 397 399 398 400 401 403 402
        </DataArray>
        <DataArray type="Int32" Name="offsets" NumberOfComponents="1" format="ascii">
          8 16 24 32 40 48 56 64 72 80 88 96
          104 112 120 128 136 144 152 160 168 176 184 192
          200 208 216 224 232 240 248 256 264 272 280 288
          296 304 312 320 328 336 344 352 360 368 376 384
          392 400 408 416 424 432 440 448 456 464 472 480
          488 496 504 512 520 528 536 544 552 560 568 576
          584 592 600 608 616 624 632 640 648 656 664 672
          680 688 696 704 712 720 728 736 744 752 760 768
          776 784 792 800
        </DataArray>
        <DataArray type="UInt8" Name="types" NumberOfComponents="1" format="ascii">
          12 12 12 12 12 12 12 12 12 12 12 12
          12 12 12 12 12 12 12 12 12 12 12 12
          12 12 12 12 12 12 12 12 12 12 12 12
          12 12 12 12 12 12 12 12 12 12 12 12
          12 12 12 12 12 12 12 12 12 12 12 12
          12 12 12 12 12 12 12 12 12 12 12 12
          12 12 12 12 12 12 12 12 12 12 12 12
          12 12 12 12 12 12 12 12 12 12 12 12
          12 12 12 12
        </DataArray>
      </Cells>
    </Piece>
  </UnstructuredGrid>
</VTKFile>
