<?xml version="1.0"?>
<VTKFile type="UnstructuredGrid" version="0.1" byte_order="LittleEndian">
  <UnstructuredGrid>
    <Piece NumberOfCells="100" NumberOfPoints="404">
      <CellData Scalars="pressure[0]">
        <DataArray type="Float32" Name="pressure[0]" NumberOfComponents="1" format="ascii">
          5.76729e+06 5.7678e+06 5.76831e+06 5.76882e+06 5.76933e+06 5.76984e+06 5.77035e+06 5.77086e+06 5.77137e+06 5.77188e+06 5.77239e+06 5.7729e+06
          5.77341e+06 5.77392e+06 5.77443e+06 5.77494e+06 5.77546e+06 5.77597e+06 5.77648e+06 5.77699e+06 5.7775e+06 5.77801e+06 5.77852e+06 5.77903e+06
          5.77954e+06 5.78005e+06 5.78056e+06 5.78108e+06 5.78159e+06 5.7821e+06 5.78261e+06 5.78312e+06 5.78374e+06 5.79386e+06 5.80398e+06 5.81408e+06
          5.82417e+06 5.83425e+06 5.84431e+06 5.85436e+06 5.86439e+06 5.8744e+06 5.88441e+06 5.89439e+06 5.90437e+06 5.91432e+06 5.92427e+06 5.9342e+06
          5.94411e+06 5.95401e+06 5.96389e+06 5.97376e+06 5.98362e+06 5.99346e+06 6.00329e+06 6.01311e+06 6.02291e+06 6.03269e+06 6.04247e+06 6.05223e+06
          6.06197e+06 6.0717e+06 6.08142e+06 6.09112e+06 6.10081e+06 6.11049e+06 6.12016e+06 6.12982e+06 6.13946e+06 6.1491e+06 6.15872e+06 6.16832e+06
          6.17791e+06 6.18749e+06 6.19706e+06 6.20662e+06 6.21618e+06 6.22572e+06 6.23525e+06 6.24476e+06 6.25427e+06 6.26377e+06 6.27325e+06 6.28272e+06
          6.29219e+06 6.30164e+06 6.31108e+06 6.32051e+06 6.32993e+06 6.33934e+06 6.34875e+06 6.35815e+06 6.36754e+06 6.37692e+06 6.3863e+06 6.39567e+06
          6.40518e+06 6.41519e+06 6.42536e+06 6.43554e+06
        </DataArray>
        <DataArray type="Float32" Name="pressure[1]" NumberOfComponents="1" format="ascii">
          5.76729e+06 5.7678e+06 5.76831e+06 5.76882e+06 5.76933e+06 5.76984e+06 5.77035e+06 5.77086e+06 5.77137e+06 5.77188e+06 5.77239e+06 5.7729e+06
          5.77341e+06 5.77392e+06 5.77443e+06 5.77494e+06 5.77546e+06 5.77597e+06 5.77648e+06 5.77699e+06 5.7775e+06 5.77801e+06 5.77852e+06 5.77903e+06
          5.77954e+06 5.78005e+06 5.78056e+06 5.78108e+06 5.78159e+06 5.7821e+06 5.78261e+06 5.78312e+06 5.78374e+06 5.79386e+06 5.80398e+06 5.81408e+06
          5.82417e+06 5.83425e+06 5.84431e+06 5.85436e+06 5.86439e+06 5.8744e+06 5.88441e+06 5.89439e+06 5.90437e+06 5.91432e+06 5.92427e+06 5.9342e+06
          5.94411e+06 5.95401e+06 5.96389e+06 5.97376e+06 5.98362e+06 5.99346e+06 6.00329e+06 6.01311e+06 6.02291e+06 6.03269e+06 6.04247e+06 6.05223e+06
          6.06197e+06 6.0717e+06 6.08142e+06 6.09112e+06 6.10081e+06 6.11049e+06 6.12016e+06 6.12982e+06 6.13946e+06 6.1491e+06 6.15872e+06 6.16832e+06
          6.17791e+06 6.18749e+06 6.19706e+06 6.20662e+06 6.21618e+06 6.22572e+06 6.23525e+06 6.24476e+06 6.25427e+06 6.26377e+06 6.27325e+06 6.28272e+06
          6.29219e+06 6.30164e+06 6.31108e+06 6.32051e+06 6.32993e+06 6.33934e+06 6.34875e+06 6.35815e+06 6.36754e+06 6.37692e+06 6.3863e+06 6.39567e+06
          6.40518e+06 6.41519e+06 6.42536e+06 6.43554e+06
        </DataArray>
        <DataArray type="Float32" Name="pressure[2]" NumberOfComponents="1" format="ascii">
          5.76729e+06 5.7678e+06 5.76831e+06 5.76882e+06 5.76933e+06 5.76984e+06 5.77035e+06 5.77086e+06 5.77137e+06 5.77188e+06 5.77239e+06 5.7729e+06
          5.77341e+06 5.77392e+06 5.77443e+06 5.77494e+06 5.77546e+06 5.77597e+06 5.77648e+06 5.77699e+06 5.7775e+06 5.77801e+06 5.77852e+06 5.77903e+06
          5.77954e+06 5.78005e+06 5.78056e+06 5.78108e+06 5.78159e+06 5.7821e+06 5.78261e+06 5.78312e+06 5.78374e+06 5.79386e+06 5.80398e+06 5.81408e+06
          5.82417e+06 5.83425e+06 5.84431e+06 5.85436e+06 5.86439e+06 5.8744e+06 5.88441e+06 5.89439e+06 5.90437e+06 5.91432e+06 5.92427e+06 5.9342e+06
          5.94411e+06 5.95401e+06 5.96389e+06 5.97376e+06 5.98362e+06 5.99346e+06 6.00329e+06 6.01311e+06 6.02291e+06 6.03269e+06 6.04247e+06 6.05223e+06
          6.06197e+06 6.0717e+06 6.08142e+06 6.09112e+06 6.10081e+06 6.11049e+06 6.12016e+06 6.12982e+06 6.13946e+06 6.1491e+06 6.15872e+06 6.16832e+06
          6.17791e+06 6.18749e+06 6.19706e+06 6.20662e+06 6.21618e+06 6.22572e+06 6.23525e+06 6.24476e+06 6.25427e+06 6.26377e+06 6.27325e+06 6.28272e+06
          6.29219e+06 6.30164e+06 6.31108e+06 6.32051e+06 6.32993e+06 6.33934e+06 6.34875e+06 6.35815e+06 6.36754e+06 6.37692e+06 6.3863e+06 6.39567e+06
          6.40518e+06 6.41519e+06 6.42536e+06 6.43554e+06
        </DataArray>
        <DataArray type="Float32" Name="velocity[0]" NumberOfComponents="1" format="ascii">
          0 0 0 0 0 0 0 0 0 0 0 0
          0 0 0 0 0 0 0 0 0 0 0 0
          0 0 0 0 0 0 0 0 0 0 0 0
          0 0 0 0 0 0 0 0 0 0 0 0
          0 0 0 0 0 0 0 0 0 0 0 0
          0 0 0 0 0 0 0 0 0 0 0 0
          0 0 0 0 0 0 0 0 0 0 0 0
          0 0 0 0 0 0 0 0 0 0 0 0
          0 0 0 0
        </DataArray>
        <DataArray type="Float32" Name="velocity[1]" NumberOfComponents="1" format="ascii">
          0 0 0 0 0 0 0 0 0 0 0 0
          0 0 0 0 0 0 0 0 0 0 0 0
          0 0 0 0 0 0 0 0 0 0 0 0
          0 0 0 0 0 0 0 0 0 0 0 0
          0 0 0 0 0 0 0 0 0 0 0 0
          0 0 0 0 0 0 0 0 0 0 0 0
          0 0 0 0 0 0 0 0 0 0 0 0
          0 0 0 0 0 0 0 0 0 0 0 0
          0 0 0 0
        </DataArray>
        <DataArray type="Float32" Name="velocity[2]" NumberOfComponents="1" format="ascii">
          2.10068e-12 6.30183e-12 1.05026e-11 1.47031e-11 1.89032e-11 2.31029e-11 2.73023e-11 3.15014e-11 3.57001e-11 3.98986e-11 4.40967e-11 4.82945e-11
          5.24921e-11 5.66893e-11 6.08863e-11 6.5083e-11 6.92794e-11 7.34755e-11 7.76714e-11 8.18671e-11 8.60625e-11 9.02577e-11 9.44526e-11 9.86473e-11
          1.02842e-10 1.07036e-10 1.1123e-10 1.15424e-10 1.19618e-10 1.23811e-10 1.28005e-10 5.68769e-10 5.58803e-10 2.88104e-11 -4.62189e-11 -2.31931e-11
          1.41597e-11 5.28197e-11 8.36303e-11 1.03668e-10 1.10721e-10 1.01586e-10 7.73325e-11 4.50323e-11 1.43897e-11 -1.84618e-12 1.11514e-11 5.57644e-11
          1.07742e-10 1.30399e-10 1.0857e-10 6.09223e-11 1.6952e-11 -9.70761e-12 -2.33966e-11 -3.36339e-11 -4.79703e-11 -7.17582e-11 -1.06054e-10 -1.41842e-10
          -1.5762e-10 -1.29735e-10 -5.44484e-11 3.83617e-11 1.01017e-10 1.03581e-10 5.23363e-11 -2.47321e-11 -9.8484e-11 -1.40985e-10 -1.2552e-10 -4.55734e-11
          6.3052e-11 1.34954e-10 1.29951e-10 7.25166e-11 1.9547e-11 -2.76197e-12 -9.98853e-12 -2.24747e-11 -4.26821e-11 -6.00544e-11 -6.20105e-11 -4.48718e-11
          -2.14619e-11 -1.22087e-11 -1.93782e-11 -1.91178e-11 4.14403e-12 2.99206e-11 3.18714e-11 1.29481e-11 -1.09717e-11 -2.99863e-11 -3.45299e-11 -2.29729e-11
          -8.91421e-12 -1.33129e-12 4.82441e-13 -1.29664e-14
        </DataArray>
        <DataArray type="Float32" Name="z[0]" NumberOfComponents="1" format="ascii">
          0 0 0 0 0 0 0 0 0 0 0 0
          0 0 0 0 0 0 0 0 0 0 0 0
          0 0 0 0 0 0 0 0 0.131967 0.8993 0.887808 0.868225
          0.848291 0.828343 0.808522 0.788902 0.769601 0.750716 0.732216 0.714029 0.696137 0.678511 0.661113 0.644118
          0.627971 0.6129 0.598603 0.584483 0.570228 0.555994 0.5421 0.528718 0.515858 0.503461 0.491427 0.479599
          0.467801 0.455995 0.444426 0.433561 0.423735 0.414828 0.406323 0.397686 0.388631 0.379103 0.369233 0.359404
          0.35022 0.342162 0.335167 0.32859 0.321772 0.314565 0.307202 0.299888 0.292676 0.285558 0.278546 0.271721
          0.265224 0.25915 0.253414 0.247817 0.242333 0.23716 0.232395 0.227892 0.223497 0.219207 0.215515 0.220575
          0.344789 0.829264 0.993944 0.999892
        </DataArray>
        <DataArray type="Float32" Name="z[1]" NumberOfComponents="1" format="ascii">
          0 0 0 0 0 0 0 2.88322e-18 0 0 0 0
          0 0 0 0 0 0 0 0 0 0 0 0
          0 0 2.95029e-17 0 0 0 0 0 0.253923 0.103782 0.110131 0.129099
          0.14827 0.167389 0.186403 0.205278 0.223929 0.242315 0.260484 0.278462 0.296182 0.313539 0.330389 0.346462
          0.361509 0.375714 0.389638 0.403762 0.418082 0.432244 0.445947 0.459118 0.471844 0.484264 0.496524 0.508715
          0.52075 0.532287 0.542852 0.552201 0.560629 0.568856 0.577547 0.586972 0.597032 0.607361 0.617318 0.626128
          0.633397 0.639586 0.645775 0.652712 0.660219 0.66772 0.675044 0.682387 0.689859 0.697338 0.704545 0.711186
          0.717192 0.722867 0.728607 0.734299 0.739376 0.743725 0.747984 0.752603 0.757424 0.762214 0.76627 0.761371
          0.639839 0.166703 0.00590732 0.000105938
        </DataArray>
        <DataArray type="Float32" Name="z[2]" NumberOfComponents="1" format="ascii">
          68.3456 68.3517 68.3578 68.3638 68.3699 68.3759 68.382 68.3881 68.3941 68.4002 68.4063 68.4123
          68.4184 68.4245 68.4305 68.4366 68.4426 68.4487 68.4548 68.4609 68.4669 68.473 68.4791 68.4851
          68.4912 68.4973 68.5033 68.5094 68.5155 68.5216 68.5276 66.8444 57.1909 5.57095 5.86662 6.86583
          7.92534 9.04569 10.2232 11.4471 12.6975 13.9481 15.1732 16.3521 17.4732 18.5438 19.5997 20.6894
          21.8363 23.0185 24.1827 25.2834 26.3036 27.248 28.1272 28.9472 29.7049 30.3846 30.9604 31.4125
          31.7576 32.0762 32.4987 33.135 33.9894 34.9427 35.8235 36.4995 36.9153 37.0979 37.176 37.3774
          37.928 38.8745 40.0023 40.996 41.7078 42.2236 42.6766 43.0894 43.4049 43.5823 43.6501 43.7117
          43.8809 44.1735 44.4715 44.6774 44.8985 45.3273 45.9286 46.4626 46.7872 46.8916 46.7883 46.1541
          38.651 10.0643 0.357019 0.00639292
        </DataArray>
        <DataArray type="Float32" Name="sat[0]" NumberOfComponents="1" format="ascii">
          0 0 0 0 0 0 0 0 0 0 0 0
          0 0 0 0 0 0 0 0 0 0 0 0
          0 0 0 0 0 0 0 0 0.13255 0.89455 0.887565 0.868179
          0.848531 0.828882 0.809298 0.789832 0.77059 0.751645 0.732973 0.714554 0.696438 0.678683 0.661349 0.644639
          0.628849 0.613958 0.599542 0.585109 0.570548 0.556123 0.542131 0.528681 0.515733 0.503196 0.490956 0.478902
          0.466977 0.455285 0.444121 0.433805 0.424397 0.415568 0.406804 0.397729 0.388232 0.378413 0.368553 0.359101
          0.350512 0.342927 0.335993 0.329119 0.321962 0.314592 0.307186 0.299818 0.292503 0.285282 0.278236 0.271479
          0.265111 0.259118 0.253355 0.247724 0.242325 0.237302 0.232585 0.227995 0.223475 0.219076 0.215332 0.220424
          0.344689 0.82923 0.993948 0.999891
        </DataArray>
        <DataArray type="Float32" Name="sat[1]" NumberOfComponents="1" format="ascii">
          0 0 0 0 0 0 0 2.96004e-18 0 0 0 0
          0 0 0 0 0 0 0 0 0 0 0 0
          0 0 3.02903e-17 0 0 0 0 0 0.261855 0.10545 0.112435 0.131821
          0.151469 0.171119 0.190702 0.210168 0.22941 0.248355 0.267027 0.285446 0.303562 0.321317 0.338651 0.355361
          0.371151 0.386042 0.400458 0.414891 0.429452 0.443877 0.457869 0.471319 0.484267 0.496804 0.509044 0.521098
          0.533023 0.544715 0.555879 0.566195 0.575602 0.584432 0.593196 0.602271 0.611768 0.621587 0.631447 0.640899
          0.649488 0.657073 0.664007 0.670881 0.678038 0.685408 0.692814 0.700182 0.707497 0.714718 0.721764 0.728521
          0.734889 0.740882 0.746645 0.752276 0.757675 0.762698 0.767415 0.772005 0.776525 0.780924 0.784668 0.779576
          0.655311 0.17077 0.00605183 0.000108521
        </DataArray>
        <DataArray type="Float32" Name="sat[2]" NumberOfComponents="1" format="ascii">
          1 1 1 1 1 1 1 1 1 1 1 1
          1 1 1 1 1 1 1 1 1 1 1 1
          1 1 1 1 1 1 1 1 0.605595 0 0 0
          -1.28718e-17 0 0 0 0 0 0 0 0 0 0 0
          0 0 0 0 0 0 0 0 0 0 0 0
          0 0 0 0 0 0 0 0 0 0 0 0
          0 0 0 0 0 0 0 0 0 0 0 0
          0 0 0 0 0 0 0 0 0 0 0 0
          0 0 0 0
        </DataArray>
        <DataArray type="Float32" Name="massFrac[0]" NumberOfComponents="1" format="ascii">
          0 0 0 0 0 0 0 0 0 0 0 0
          0 0 0 0 0 0 0 0 0 0 0 0
          0 0 0 0 0 0 0 0 0.338844 0.907019 0.900776 0.883369
          0.865626 0.847776 0.829881 0.811993 0.794212 0.776614 0.759186 0.741914 0.72485 0.708049 0.691567 0.675593
          0.66041 0.646018 0.63203 0.617985 0.603774 0.589651 0.575904 0.562643 0.549836 0.537399 0.525228 0.513216
          0.501304 0.489585 0.47834 0.467885 0.458293 0.449254 0.440272 0.430979 0.421262 0.411213 0.401099 0.391358
          0.382443 0.374507 0.367218 0.359997 0.352497 0.344776 0.337006 0.329264 0.32157 0.313969 0.306545 0.29941
          0.292661 0.286288 0.280151 0.27415 0.268383 0.262994 0.257913 0.252968 0.248108 0.243385 0.239372 0.244874
          0.376279 0.847777 0.994719 0.999905
        </DataArray>
        <DataArray type="Float32" Name="massFrac[1]" NumberOfComponents="1" format="ascii">
          0 0 0 0 0 0 0 4.88188e-17 0 0 0 0
          0 0 0 0 0 0 0 0 0 0 0 0
          0 0 4.98704e-16 0 0 0 0 0 0.553497 0.0888613 0.0948602 0.111509
          0.128445 0.145437 0.162426 0.179369 0.196181 0.212807 0.22928 0.245629 0.261811 0.277764 0.293401 0.308498
          0.322754 0.336194 0.349251 0.362417 0.375807 0.389163 0.402189 0.414773 0.426952 0.438823 0.450512 0.46214
          0.473746 0.485167 0.496016 0.505899 0.514756 0.523002 0.53127 0.540021 0.549402 0.559286 0.569294 0.578803
          0.587192 0.594298 0.60065 0.607075 0.614006 0.621296 0.62867 0.636051 0.643467 0.6509 0.658237 0.665278
          0.67184 0.677935 0.683805 0.689615 0.695161 0.700155 0.704718 0.70922 0.713813 0.718445 0.722528 0.717561
          0.592796 0.14468 0.00501887 8.99359e-05
        </DataArray>
        <DataArray type="Float32" Name="massFrac[2]" NumberOfComponents="1" format="ascii">
          1 1 1 1 1 1 1 1 1 1 1 1
          1 1 1 1 1 1 1 1 1 1 1 1
          1 1 1 1 1 1 1 1 0.107659 0.00411935 0.00436388 0.00512141
          0.00592912 0.00678734 0.00769305 0.00863796 0.00960675 0.0105787 0.0115338 0.0124566 0.0133387 0.014187 0.0150312 0.0159094
          0.0168361 0.0177877 0.0187194 0.0195987 0.0204187 0.0211859 0.0219071 0.0225841 0.0232123 0.0237778 0.0242596 0.024644
          0.0249502 0.0252486 0.0256443 0.0262158 0.0269513 0.0277439 0.0284581 0.0289995 0.0293365 0.0295016 0.0296074 0.0298392
          0.0303651 0.0311947 0.0321318 0.0329285 0.0334975 0.0339288 0.0343234 0.034685 0.0349635 0.035131 0.0352184 0.0353124
          0.035499 0.0357768 0.0360438 0.0362353 0.0364554 0.0368512 0.0373695 0.037812 0.0380788 0.03817 0.0380996 0.037565
          0.0309247 0.00754329 0.000261949 4.68697e-06
        </DataArray>
        <DataArray type="Float32" Name="total fl. vol." NumberOfComponents="1" format="ascii">
          1 1 1 1 1 1 1 1 1 1 1 1
          1 1 1 1 1 1 1 1 1 1 1 1
          1 1 1 1 1 1 1 0.975351 0.995599 1.00531 1.00027 1.00005
          0.999717 0.99935 0.999041 0.998822 0.998717 0.998764 0.998967 0.999265 0.999567 0.999747 0.999642 0.999192
          0.998603 0.998276 0.998434 0.998931 0.999439 0.999768 0.999944 1.00007 1.00024 1.00053 1.00096 1.00145
          1.00177 1.00156 1.00069 0.999436 0.998438 0.998217 0.998817 0.999892 1.00103 1.00182 1.00185 1.00085
          0.999165 0.997769 0.997541 0.998395 0.999408 0.999914 1.00005 1.00023 1.00059 1.00097 1.00112 1.00089
          1.00042 1.00013 1.00023 1.00038 1.00003 0.999399 0.999184 0.999548 1.0001 1.0006 1.00085 1.00069
          1.00029 1.00004 0.999996 1
        </DataArray>
      </CellData>
      <Points>
        <DataArray type="Float32" Name="Coordinates" NumberOfComponents="3" format="ascii">
          0 0 0 1 0 0 0 1 0 1 1 0
          0 0 1 1 0 1 0 1 1 1 1 1
          0 0 2 1 0 2 0 1 2 1 1 2
          0 0 3 1 0 3 0 1 3 1 1 3
          0 0 4 1 0 4 0 1 4 1 1 4
          0 0 5 1 0 5 0 1 5 1 1 5
          0 0 6 1 0 6 0 1 6 1 1 6
          0 0 7 1 0 7 0 1 7 1 1 7
          0 0 8 1 0 8 0 1 8 1 1 8
          0 0 9 1 0 9 0 1 9 1 1 9
          0 0 10 1 0 10 0 1 10 1 1 10
          0 0 11 1 0 11 0 1 11 1 1 11
          0 0 12 1 0 12 0 1 12 1 1 12
          0 0 13 1 0 13 0 1 13 1 1 13
          0 0 14 1 0 14 0 1 14 1 1 14
          0 0 15 1 0 15 0 1 15 1 1 15
          0 0 16 1 0 16 0 1 16 1 1 16
          0 0 17 1 0 17 0 1 17 1 1 17
          0 0 18 1 0 18 0 1 18 1 1 18
          0 0 19 1 0 19 0 1 19 1 1 19
          0 0 20 1 0 20 0 1 20 1 1 20
          0 0 21 1 0 21 0 1 21 1 1 21
          0 0 22 1 0 22 0 1 22 1 1 22
          0 0 23 1 0 23 0 1 23 1 1 23
          0 0 24 1 0 24 0 1 24 1 1 24
          0 0 25 1 0 25 0 1 25 1 1 25
          0 0 26 1 0 26 0 1 26 1 1 26
          0 0 27 1 0 27 0 1 27 1 1 27
          0 0 28 1 0 28 0 1 28 1 1 28
          0 0 29 1 0 29 0 1 29 1 1 29
          0 0 30 1 0 30 0 1 30 1 1 30
          0 0 31 1 0 31 0 1 31 1 1 31
          0 0 32 1 0 32 0 1 32 1 1 32
          0 0 33 1 0 33 0 1 33 1 1 33
          0 0 34 1 0 34 0 1 34 1 1 34
          0 0 35 1 0 35 0 1 35 1 1 35
          0 0 36 1 0 36 0 1 36 1 1 36
          0 0 37 1 0 37 0 1 37 1 1 37
          0 0 38 1 0 38 0 1 38 1 1 38
          0 0 39 1 0 39 0 1 39 1 1 39
          0 0 40 1 0 40 0 1 40 1 1 40
          0 0 41 1 0 41 0 1 41 1 1 41
          0 0 42 1 0 42 0 1 42 1 1 42
          0 0 43 1 0 43 0 1 43 1 1 43
          0 0 44 1 0 44 0 1 44 1 1 44
          0 0 45 1 0 45 0 1 45 1 1 45
          0 0 46 1 0 46 0 1 46 1 1 46
          0 0 47 1 0 47 0 1 47 1 1 47
          0 0 48 1 0 48 0 1 48 1 1 48
          0 0 49 1 0 49 0 1 49 1 1 49
          0 0 50 1 0 50 0 1 50 1 1 50
          0 0 51 1 0 51 0 1 51 1 1 51
          0 0 52 1 0 52 0 1 52 1 1 52
          0 0 53 1 0 53 0 1 53 1 1 53
          0 0 54 1 0 54 0 1 54 1 1 54
          0 0 55 1 0 55 0 1 55 1 1 55
          0 0 56 1 0 56 0 1 56 1 1 56
          0 0 57 1 0 57 0 1 57 1 1 57
          0 0 58 1 0 58 0 1 58 1 1 58
          0 0 59 1 0 59 0 1 59 1 1 59
          0 0 60 1 0 60 0 1 60 1 1 60
          0 0 61 1 0 61 0 1 61 1 1 61
          0 0 62 1 0 62 0 1 62 1 1 62
          0 0 63 1 0 63 0 1 63 1 1 63
          0 0 64 1 0 64 0 1 64 1 1 64
          0 0 65 1 0 65 0 1 65 1 1 65
          0 0 66 1 0 66 0 1 66 1 1 66
          0 0 67 1 0 67 0 1 67 1 1 67
          0 0 68 1 0 68 0 1 68 1 1 68
          0 0 69 1 0 69 0 1 69 1 1 69
          0 0 70 1 0 70 0 1 70 1 1 70
          0 0 71 1 0 71 0 1 71 1 1 71
          0 0 72 1 0 72 0 1 72 1 1 72
          0 0 73 1 0 73 0 1 73 1 1 73
          0 0 74 1 0 74 0 1 74 1 1 74
          0 0 75 1 0 75 0 1 75 1 1 75
          0 0 76 1 0 76 0 1 76 1 1 76
          0 0 77 1 0 77 0 1 77 1 1 77
          0 0 78 1 0 78 0 1 78 1 1 78
          0 0 79 1 0 79 0 1 79 1 1 79
          0 0 80 1 0 80 0 1 80 1 1 80
          0 0 81 1 0 81 0 1 81 1 1 81
          0 0 82 1 0 82 0 1 82 1 1 82
          0 0 83 1 0 83 0 1 83 1 1 83
          0 0 84 1 0 84 0 1 84 1 1 84
          0 0 85 1 0 85 0 1 85 1 1 85
          0 0 86 1 0 86 0 1 86 1 1 86
          0 0 87 1 0 87 0 1 87 1 1 87
          0 0 88 1 0 88 0 1 88 1 1 88
          0 0 89 1 0 89 0 1 89 1 1 89
          0 0 90 1 0 90 0 1 90 1 1 90
          0 0 91 1 0 91 0 1 91 1 1 91
          0 0 92 1 0 92 0 1 92 1 1 92
          0 0 93 1 0 93 0 1 93 1 1 93
          0 0 94 1 0 94 0 1 94 1 1 94
          0 0 95 1 0 95 0 1 95 1 1 95
          0 0 96 1 0 96 0 1 96 1 1 96
          0 0 97 1 0 97 0 1 97 1 1 97
          0 0 98 1 0 98 0 1 98 1 1 98
          0 0 99 1 0 99 0 1 99 1 1 99
          0 0 100 1 0 100 0 1 100 1 1 100
        </DataArray>
      </Points>
      <Cells>
        <DataArray type="Int32" Name="connectivity" NumberOfComponents="1" format="ascii">
          0 1 3 2 4 5 7 6 4 5 7 6
          8 9 11 10 8 9 11 10 12 13 15 14
          12 13 15 14 16 17 19 18 16 17 19 18
          20 21 23 22 20 21 23 22 24 25 27 26
          24 25 27 26 28 29 31 30 28 29 31 30
          32 33 35 34 32 33 35 34 36 37 39 38
          36 37 39 38 40 41 43 42 40 41 43 42
          44 45 47 46 44 45 47 46 48 49 51 50
          48 49 51 50 52 53 55 54 52 53 55 54
          56 57 59 58 56 57 59 58 60 61 63 62
          60 61 63 62 64 65 67 66 64 65 67 66
          68 69 71 70 68 69 71 70 72 73 75 74
          72 73 75 74 76 77 79 78 76 77 79 78
          80 81 83 82 80 81 83 82 84 85 87 86
          84 85 87 86 88 89 91 90 88 89 91 90
          92 93 95 94 92 93 95 94 96 97 99 98
          96 97 99 98 100 101 103 102 100 101 103 102
          104 105 107 106 104 105 107 106 108 109 111 110
          108 109 111 110 112 113 115 114 112 113 115 114
          116 117 119 118 116 117 119 118 120 121 123 122
          120 121 123 122 124 125 127 126 124 125 127 126
          128 129 131 130 128 129 131 130 132 133 135 134
          132 133 135 134 136 137 139 138 136 137 139 138
          140 141 143 142 140 141 143 142 144 145 147 146
          144 145 147 146 148 149 151 150 148 149 151 150
          152 153 155 154 152 153 155 154 156 157 159 158
          156 157 159 158 160 161 163 162 160 161 163 162
          164 165 167 166 164 165 167 166 168 169 171 170
          168 169 171 170 172 173 175 174 172 173 175 174
          176 177 179 178 176 177 179 178 180 181 183 182
          180 181 183 182 184 185 187 186 184 185 187 186
          188 189 191 190 188 189 191 190 192 193 195 194
          192 193 195 194 196 197 199 198 196 197 199 198
          200 201 203 202 200 201 203 202 204 205 207 206
          204 205 207 206 208 209 211 210 208 209 211 210
          212 213 215 214 212 213 215 214 216 217 219 218
          216 217 219 218 220 221 223 222 220 221 223 222
          224 225 227 226 224 225 227 226 228 229 231 230
          228 229 231 230 232 233 235 234 232 233 235 234
          236 237 239 238 236 237 239 238 240 241 243 242
          240 241 243 242 244 245 247 246 244 245 247 246
          248 249 251 250 248 249 251 250 252 253 255 254
          252 253 255 254 256 257 259 258 256 257 259 258
          260 261 263 262 260 261 263 262 264 265 267 266
          264 265 267 266 268 269 271 270 268 269 271 270
          272 273 275 274 272 273 275 274 276 277 279 278
          276 277 279 278 280 281 283 282 280 281 283 282
          284 285 287 286 284 285 287 286 288 289 291 290
          288 289 291 290 292 293 295 294 292 293 295 294
          296 297 299 298 296 297 299 298 300 301 303 302
          300 301 303 302 304 305 307 306 304 305 307 306
          308 309 311 310 308 309 311 310 312 313 315 314
          312 313 315 314 316 317 319 318 316 317 319 318
          320 321 323 322 320 321 323 322 324 325 327 326
          324 325 327 326 328 329 331 330 328 329 331 330
          332 333 335 334 332 333 335 334 336 337 339 338
          336 337 339 338 340 341 343 342 340 341 343 342
          344 345 347 346 344 345 347 346 348 349 351 350
          348 349 351 350 352 353 355 354 352 353 355 354
          356 357 359 358 356 357 359 358 360 361 363 362
          360 361 363 362 364 365 367 366 364 365 367 366
          368 369 371 370 368 369 371 370 372 373 375 374
          372 373 375 374 376 377 379 378 376 377 379 378
          380 381 383 382 380 381 383 382 384 385 387 386
          384 385 387 386 388 389 391 390 388 389 391 390
          392 393 395 394 392 393 395 394 396 397 399 398
          396 397 399 398 400 401 403 402
        </DataArray>
        <DataArray type="Int32" Name="offsets" NumberOfComponents="1" format="ascii">
          8 16 24 32 40 48 56 64 72 80 88 96
          104 112 120 128 136 144 152 160 168 176 184 192
          200 208 216 224 232 240 248 256 264 272 280 288
          296 304 312 320 328 336 344 352 360 368 376 384
          392 400 408 416 424 432 440 448 456 464 472 480
          488 496 504 512 520 528 536 544 552 560 568 576
          584 592 600 608 616 624 632 640 648 656 664 672
          680 688 696 704 712 720 728 736 744 752 760 768
          776 784 792 800
        </DataArray>
        <DataArray type="UInt8" Name="types" NumberOfComponents="1" format="ascii">
          12 12 12 12 12 12 12 12 12 12 12 12
          12 12 12 12 12 12 12 12 12 12 12 12
          12 12 12 12 12 12 12 12 12 12 12 12
          12 12 12 12 12 12 12 12 12 12 12 12
          12 12 12 12 12 12 12 12 12 12 12 12
          12 12 12 12 12 12 12 12 12 12 12 12
          12 12 12 12 12 12 12 12 12 12 12 12
          12 12 12 12 12 12 12 12 12 12 12 12
          12 12 12 12
        </DataArray>
      </Cells>
    </Piece>
  </UnstructuredGrid>
</VTKFile>
