<?xml version="1.0"?>
<VTKFile type="UnstructuredGrid" version="0.1" byte_order="LittleEndian">
  <UnstructuredGrid>
    <Piece NumberOfCells="100" NumberOfPoints="404">
      <CellData Scalars="pressure[0]">
        <DataArray type="Float32" Name="pressure[0]" NumberOfComponents="1" format="ascii">
          6.91012e+06 6.9203e+06 6.93048e+06 6.94066e+06 6.95084e+06 6.96102e+06 6.9712e+06 6.98138e+06 6.99156e+06 7.00173e+06 7.01191e+06 7.02209e+06
          7.03227e+06 7.04245e+06 7.05263e+06 7.06281e+06 7.07299e+06 7.08317e+06 7.09335e+06 7.10353e+06 7.11371e+06 7.12389e+06 7.13407e+06 7.14424e+06
          7.15442e+06 7.1646e+06 7.17478e+06 7.18496e+06 7.19514e+06 7.20532e+06 7.21548e+06 7.2256e+06 7.23554e+06 7.24492e+06 7.25398e+06 7.26284e+06
          7.27159e+06 7.28027e+06 7.28892e+06 7.29754e+06 7.30614e+06 7.31472e+06 7.32328e+06 7.33182e+06 7.34034e+06 7.34885e+06 7.35733e+06 7.36579e+06
          7.37423e+06 7.38272e+06 7.38968e+06 7.39614e+06 7.40207e+06 7.4076e+06 7.4128e+06 7.4177e+06 7.42233e+06 7.42672e+06 7.43087e+06 7.43479e+06
          7.43849e+06 7.44196e+06 7.44519e+06 7.44819e+06 7.45094e+06 7.45343e+06 7.45563e+06 7.45753e+06 7.45914e+06 7.46051e+06 7.4617e+06 7.46278e+06
          7.46379e+06 7.46476e+06 7.46571e+06 7.46663e+06 7.46754e+06 7.46844e+06 7.46933e+06 7.47021e+06 7.47108e+06 7.47193e+06 7.47278e+06 7.47362e+06
          7.47444e+06 7.47526e+06 7.47606e+06 7.47686e+06 7.47764e+06 7.47841e+06 7.47918e+06 7.47993e+06 7.48067e+06 7.48141e+06 7.48213e+06 7.48284e+06
          7.48355e+06 7.48424e+06 7.48492e+06 7.48559e+06
        </DataArray>
        <DataArray type="Float32" Name="pressure[1]" NumberOfComponents="1" format="ascii">
          6.91012e+06 6.9203e+06 6.93048e+06 6.94066e+06 6.95084e+06 6.96102e+06 6.9712e+06 6.98138e+06 6.99156e+06 7.00173e+06 7.01191e+06 7.02209e+06
          7.03227e+06 7.04245e+06 7.05263e+06 7.06281e+06 7.07299e+06 7.08317e+06 7.09335e+06 7.10353e+06 7.11371e+06 7.12389e+06 7.13407e+06 7.14424e+06
          7.15442e+06 7.1646e+06 7.17478e+06 7.18496e+06 7.19514e+06 7.20532e+06 7.21548e+06 7.2256e+06 7.23554e+06 7.24492e+06 7.25398e+06 7.26284e+06
          7.27159e+06 7.28027e+06 7.28892e+06 7.29754e+06 7.30614e+06 7.31472e+06 7.32328e+06 7.33182e+06 7.34034e+06 7.34885e+06 7.35733e+06 7.36579e+06
          7.37423e+06 7.38272e+06 7.38968e+06 7.39614e+06 7.40207e+06 7.4076e+06 7.4128e+06 7.4177e+06 7.42233e+06 7.42672e+06 7.43087e+06 7.43479e+06
          7.43849e+06 7.44196e+06 7.44519e+06 7.44819e+06 7.45094e+06 7.45343e+06 7.45563e+06 7.45753e+06 7.45914e+06 7.46051e+06 7.4617e+06 7.46278e+06
          7.46379e+06 7.46476e+06 7.46571e+06 7.46663e+06 7.46754e+06 7.46844e+06 7.46933e+06 7.47021e+06 7.47108e+06 7.47193e+06 7.47278e+06 7.47362e+06
          7.47444e+06 7.47526e+06 7.47606e+06 7.47686e+06 7.47764e+06 7.47841e+06 7.47918e+06 7.47993e+06 7.48067e+06 7.48141e+06 7.48213e+06 7.48284e+06
          7.48355e+06 7.48424e+06 7.48492e+06 7.48559e+06
        </DataArray>
        <DataArray type="Float32" Name="pressure[2]" NumberOfComponents="1" format="ascii">
          6.91012e+06 6.9203e+06 6.93048e+06 6.94066e+06 6.95084e+06 6.96102e+06 6.9712e+06 6.98138e+06 6.99156e+06 7.00173e+06 7.01191e+06 7.02209e+06
          7.03227e+06 7.04245e+06 7.05263e+06 7.06281e+06 7.07299e+06 7.08317e+06 7.09335e+06 7.10353e+06 7.11371e+06 7.12389e+06 7.13407e+06 7.14424e+06
          7.15442e+06 7.1646e+06 7.17478e+06 7.18496e+06 7.19514e+06 7.20532e+06 7.21548e+06 7.2256e+06 7.23554e+06 7.24492e+06 7.25398e+06 7.26284e+06
          7.27159e+06 7.28027e+06 7.28892e+06 7.29754e+06 7.30614e+06 7.31472e+06 7.32328e+06 7.33182e+06 7.34034e+06 7.34885e+06 7.35733e+06 7.36579e+06
          7.37423e+06 7.38272e+06 7.38968e+06 7.39614e+06 7.40207e+06 7.4076e+06 7.4128e+06 7.4177e+06 7.42233e+06 7.42672e+06 7.43087e+06 7.43479e+06
          7.43849e+06 7.44196e+06 7.44519e+06 7.44819e+06 7.45094e+06 7.45343e+06 7.45563e+06 7.45753e+06 7.45914e+06 7.46051e+06 7.4617e+06 7.46278e+06
          7.46379e+06 7.46476e+06 7.46571e+06 7.46663e+06 7.46754e+06 7.46844e+06 7.46933e+06 7.47021e+06 7.47108e+06 7.47193e+06 7.47278e+06 7.47362e+06
          7.47444e+06 7.47526e+06 7.47606e+06 7.47686e+06 7.47764e+06 7.47841e+06 7.47918e+06 7.47993e+06 7.48067e+06 7.48141e+06 7.48213e+06 7.48284e+06
          7.48355e+06 7.48424e+06 7.48492e+06 7.48559e+06
        </DataArray>
        <DataArray type="Float32" Name="velocity[0]" NumberOfComponents="1" format="ascii">
          0 0 0 0 0 0 0 0 0 0 0 0
          0 0 0 0 0 0 0 0 0 0 0 0
          0 0 0 0 0 0 0 0 0 0 0 0
          0 0 0 0 0 0 0 0 0 0 0 0
          0 0 0 0 0 0 0 0 0 0 0 0
          0 0 0 0 0 0 0 0 0 0 0 0
          0 0 0 0 0 0 0 0 0 0 0 0
          0 0 0 0 0 0 0 0 0 0 0 0
          0 0 0 0
        </DataArray>
        <DataArray type="Float32" Name="velocity[1]" NumberOfComponents="1" format="ascii">
          0 0 0 0 0 0 0 0 0 0 0 0
          0 0 0 0 0 0 0 0 0 0 0 0
          0 0 0 0 0 0 0 0 0 0 0 0
          0 0 0 0 0 0 0 0 0 0 0 0
          0 0 0 0 0 0 0 0 0 0 0 0
          0 0 0 0 0 0 0 0 0 0 0 0
          0 0 0 0 0 0 0 0 0 0 0 0
          0 0 0 0 0 0 0 0 0 0 0 0
          0 0 0 0
        </DataArray>
        <DataArray type="Float32" Name="velocity[2]" NumberOfComponents="1" format="ascii">
          -8.03332e-20 2.29786e-20 1.14341e-19 2.38977e-20 2.42654e-20 2.18756e-20 -6.91196e-20 -6.91196e-20 2.37139e-20 -3.43025e-19 -3.46517e-19 -7.24285e-20
          2.08646e-19 3.92474e-19 1.114e-19 -1.57174e-19 -3.39348e-19 -2.56625e-19 1.11952e-19 -3.12509e-20 -2.20962e-19 4.17291e-20 2.70228e-20 3.77989e-18
          5.82671e-17 7.41066e-16 8.2937e-15 8.10878e-14 6.81266e-13 4.81159e-12 2.78456e-11 1.28942e-10 4.7101e-10 1.34296e-09 2.67899e-09 4.18012e-09
          5.75852e-09 7.37335e-09 9.00442e-09 1.06427e-08 1.22848e-08 1.39299e-08 1.55781e-08 1.72296e-08 1.88848e-08 2.05439e-08 2.22075e-08 2.38758e-08
          2.48667e-08 -1.92268e-06 -3.87631e-06 -3.82412e-06 -3.71034e-06 -3.60126e-06 -3.49653e-06 -3.39583e-06 -3.29887e-06 -3.20538e-06 -3.11513e-06 -3.02787e-06
          -2.94336e-06 -2.86138e-06 -2.78171e-06 -2.70409e-06 -2.62828e-06 -2.55399e-06 -2.48088e-06 -2.40851e-06 -2.33633e-06 -2.26374e-06 -2.19025e-06 -2.11571e-06
          -2.04025e-06 -1.96418e-06 -1.88783e-06 -1.81147e-06 -1.73524e-06 -1.65924e-06 -1.5835e-06 -1.50802e-06 -1.43279e-06 -1.35781e-06 -1.28307e-06 -1.20855e-06
          -1.13424e-06 -1.06013e-06 -9.862e-07 -9.12444e-07 -8.38848e-07 -7.65399e-07 -6.92084e-07 -6.18893e-07 -5.45811e-07 -4.72829e-07 -3.99934e-07 -3.27113e-07
          -2.54353e-07 -1.81643e-07 -1.08969e-07 -3.63199e-08
        </DataArray>
        <DataArray type="Float32" Name="z[0]" NumberOfComponents="1" format="ascii">
          1 1 1 1 1 1 1 1 1 1 1 1
          1 1 1 1 1 1 1 1 1 1 1 1
          1 0.999999 0.999991 0.999919 0.999341 0.995576 0.976131 0.899905 0.681301 0.25256 0.114334 0.0505926
          0.0203124 0.00713747 0.00216696 0.000570136 0.000131441 2.6899e-05 4.94513e-06 8.25023e-07 1.25976e-07 1.77315e-08 2.31455e-09 2.81654e-10
          3.21314e-11 2.86403e-12 7.4836e-13 1.43796e-13 2.59191e-14 4.88894e-15 9.3433e-16 1.73837e-16 3.16155e-17 5.7012e-18 1.02459e-18 1.83295e-19
          3.258e-20 5.74521e-21 1.00381e-21 1.73723e-22 2.98232e-23 5.09467e-24 8.69468e-25 1.48761e-25 2.55415e-26 4.38734e-27 7.49973e-28 1.26907e-28
          2.11677e-29 3.46998e-30 5.58103e-31 8.80184e-32 1.36135e-32 2.06618e-33 3.07975e-34 4.51167e-35 6.49948e-36 9.21057e-37 1.28414e-37 1.76132e-38
          2.37629e-39 3.15292e-40 4.11323e-41 5.27449e-42 6.64215e-43 8.26766e-44 9.80909e-45 1.4013e-45 0 0 0 0
          0 0 0 0
        </DataArray>
        <DataArray type="Float32" Name="z[1]" NumberOfComponents="1" format="ascii">
          0 0 0 0 0 0 0 0 0 0 0 0
          0 0 0 0 7.6195e-19 1.07499e-16 2.32955e-15 4.96864e-14 9.85881e-13 1.80509e-11 3.03195e-10 4.63943e-09
          6.41387e-08 7.93091e-07 8.66321e-06 8.2293e-05 0.0006661 0.00447398 0.0241369 0.101219 0.322283 0.755856 0.89565 0.960124
          0.990759 1.0041 1.00914 1.01077 1.01122 1.01134 1.01138 1.0114 1.01141 1.01142 1.01144 1.01145
          1.01159 0.894216 0.880018 0.873393 0.865752 0.85956 0.853891 0.84852 0.843189 0.837645 0.831659 0.825009
          0.817436 0.80858 0.7979 0.784555 0.767158 0.743293 0.708583 0.65541 0.574717 0.46529 0.340964 0.223979
          0.131656 0.0694401 0.0330274 0.0142482 0.00560855 0.0020259 0.000675066 0.000208503 5.9949e-05 1.61076e-05 4.05849e-06 9.61917e-07
          2.15069e-07 4.54775e-08 9.11604e-09 1.73593e-09 3.14647e-10 5.43826e-11 8.97758e-12 1.41773e-12 2.14476e-13 3.11326e-14 4.33528e-15 5.88464e-16
          1.10419e-16 6.98523e-19 0 0
        </DataArray>
        <DataArray type="Float32" Name="z[2]" NumberOfComponents="1" format="ascii">
          0 0 0 0 0 0 0 0 0 0 0 0
          0 0 0 0 0 0 0 0 0 0 0 0
          0 0 0 0 0 0 0 0 0 0 0 0
          0 0 0 0 0 0 0 0 0 0 0 0
          8.4644e-05 43.8843 77.834 78.0626 78.2066 78.3308 78.4459 78.5548 78.6607 78.7665 78.8749 78.9884
          79.1099 79.2434 79.3948 79.5735 79.7948 80.0853 80.4935 81.1039 82.0174 83.2481 84.6431 85.9558
          86.994 87.6972 88.1132 88.333 88.4399 88.4904 88.516 88.5316 88.5435 88.5541 88.5643 88.5742
          88.584 88.5936 88.6031 88.6125 88.6218 88.631 88.64 88.6489 88.6577 88.6664 88.675 88.6834
          88.6917 88.6999 88.708 88.716
        </DataArray>
        <DataArray type="Float32" Name="sat[0]" NumberOfComponents="1" format="ascii">
          1 1 1 1 1 1 1 1 1 1 1 1
          1 1 1 1 1 1 1 1 1 1 1 1
          1 0.999999 0.999991 0.999919 0.999341 0.995576 0.976131 0.899905 0.681301 0.25256 0.114334 0.0505926
          0.0203124 0.00713747 0.00216696 0.000570136 0.000131441 2.6899e-05 4.94513e-06 8.25023e-07 1.25976e-07 1.77315e-08 2.31455e-09 2.81654e-10
          3.21275e-11 3.15201e-12 7.49139e-13 1.43797e-13 2.59192e-14 4.88896e-15 9.34333e-16 1.73837e-16 3.16156e-17 5.70121e-18 1.0246e-18 1.83296e-19
          3.25801e-20 5.74522e-21 1.00382e-21 1.73723e-22 2.98233e-23 5.09468e-24 8.6947e-25 1.48762e-25 2.55416e-26 4.38735e-27 7.49974e-28 1.26907e-28
          2.11678e-29 3.46998e-30 5.58104e-31 8.80184e-32 1.36135e-32 2.06618e-33 3.07975e-34 4.51167e-35 6.49948e-36 9.21057e-37 1.28414e-37 1.76132e-38
          2.37629e-39 3.15292e-40 4.11323e-41 5.27449e-42 6.64215e-43 8.26766e-44 9.80909e-45 1.4013e-45 0 0 0 0
          0 0 0 0
        </DataArray>
        <DataArray type="Float32" Name="sat[1]" NumberOfComponents="1" format="ascii">
          0 0 0 0 0 0 0 0 0 0 0 0
          0 0 0 0 7.53669e-19 1.06329e-16 2.30416e-15 4.9144e-14 9.75104e-13 1.78533e-11 2.99871e-10 4.58849e-09
          6.34336e-08 7.84359e-07 8.56769e-06 8.13844e-05 0.000658735 0.00442444 0.0238693 0.100095 0.318699 0.74744 0.885666 0.949407
          0.979688 0.992863 0.997833 0.99943 0.999869 0.999973 0.999995 0.999999 1 1 1 1
          1 1 0.91085 0.903084 0.895205 0.888823 0.882981 0.877446 0.871951 0.866234 0.860059 0.853197
          0.845379 0.836232 0.825199 0.811408 0.793426 0.768752 0.73286 0.677871 0.594417 0.481241 0.352655 0.23166
          0.136171 0.071822 0.0341604 0.0147371 0.005801 0.00209542 0.000698235 0.00021566 6.20071e-05 1.66606e-05 4.19784e-06 9.94951e-07
          2.22455e-07 4.70396e-08 9.4292e-09 1.79557e-09 3.25458e-10 5.62513e-11 9.28611e-12 1.46646e-12 2.21848e-13 3.22028e-14 4.48433e-15 6.08698e-16
          1.14216e-16 7.22545e-19 0 0
        </DataArray>
        <DataArray type="Float32" Name="sat[2]" NumberOfComponents="1" format="ascii">
          0 0 0 0 0 0 0 0 0 0 0 0
          0 0 0 0 0 0 0 0 0 0 0 0
          0 0 0 0 0 0 0 0 0 0 0 0
          0 0 0 0 0 0 0 0 0 0 0 0
          0 0 0.08915 0.0969164 0.104795 0.111177 0.117019 0.122554 0.128049 0.133766 0.139941 0.146803
          0.154621 0.163768 0.174801 0.188592 0.206574 0.231248 0.26714 0.322129 0.405583 0.518759 0.647345 0.76834
          0.863829 0.928178 0.96584 0.985263 0.994199 0.997905 0.999302 0.999784 0.999938 0.999983 0.999996 0.999999
          1 1 1 1 1 1 1 1 1 1 1 1
          1 1 1 1
        </DataArray>
        <DataArray type="Float32" Name="massFrac[0]" NumberOfComponents="1" format="ascii">
          1 1 1 1 1 1 1 1 1 1 1 1
          1 1 1 1 1 1 1 1 1 1 1 1
          1 0.999999 0.999993 0.99993 0.999434 0.996199 0.97944 0.912836 0.713479 0.282431 0.130714 0.0584426
          0.0235805 0.00830367 0.00252305 0.000663992 0.000153088 3.13291e-05 5.7595e-06 9.60877e-07 1.46719e-07 2.06507e-08 2.69557e-09 3.28015e-10
          3.74153e-11 3.61936e-12 9.30627e-13 1.8004e-13 3.27134e-14 6.211e-15 1.19416e-15 2.23459e-16 4.0874e-17 7.41515e-18 1.34135e-18 2.41721e-19
          4.33272e-20 7.71653e-21 1.36466e-21 2.39823e-22 4.2018e-23 7.38652e-24 1.31626e-24 2.41549e-25 4.6606e-26 9.62061e-27 2.13356e-27 5.01288e-28
          1.20582e-28 2.81551e-29 6.02458e-30 1.14523e-30 1.95595e-31 3.10257e-32 4.70423e-33 6.93216e-34 1.00045e-34 1.4184e-35 1.97762e-36 2.7123e-37
          3.65894e-38 4.85426e-39 6.33219e-40 8.11996e-41 1.02337e-41 1.26677e-42 1.54143e-43 1.82169e-44 2.8026e-45 0 0 0
          0 0 0 0
        </DataArray>
        <DataArray type="Float32" Name="massFrac[1]" NumberOfComponents="1" format="ascii">
          0 0 0 0 0 0 0 0 0 0 0 0
          0 0 0 0 6.4685e-19 9.126e-17 1.97765e-15 4.21808e-14 8.36954e-13 1.53241e-11 2.57394e-10 3.9386e-09
          5.44499e-08 6.73287e-07 7.35455e-06 6.98627e-05 0.000565532 0.00380052 0.0205603 0.0871636 0.286521 0.717569 0.869286 0.941557
          0.97642 0.991696 0.997477 0.999336 0.999847 0.999969 0.999994 0.999999 1 1 1 1
          1 0.959342 0.929039 0.928344 0.927634 0.927043 0.926494 0.925968 0.925442 0.924893 0.924297 0.923632
          0.922869 0.921969 0.920868 0.919464 0.917578 0.914874 0.910662 0.903452 0.890279 0.866167 0.823462 0.751078
          0.636685 0.47832 0.302666 0.157383 0.0684095 0.0258254 0.00875378 0.0027197 0.000783385 0.000210582 5.30606e-05 1.25752e-05
          2.81133e-06 5.94406e-07 1.19137e-07 2.26844e-08 4.11124e-09 7.105e-10 1.17279e-10 1.85187e-11 2.80125e-12 4.0658e-13 5.66117e-14 7.68365e-15
          1.44162e-15 9.11901e-18 0 0
        </DataArray>
        <DataArray type="Float32" Name="massFrac[2]" NumberOfComponents="1" format="ascii">
          0 0 0 0 0 0 0 0 0 0 0 0
          0 0 0 0 0 0 0 0 0 0 0 0
          0 0 0 0 0 0 0 0 0 0 0 0
          0 0 0 0 0 0 0 0 0 0 0 0
          7.22609e-08 0.0406584 0.0709614 0.071656 0.0723664 0.0729569 0.0735056 0.0740315 0.0745576 0.0751075 0.0757034 0.0763684
          0.0771307 0.0780309 0.0791319 0.080536 0.082422 0.0851263 0.0893383 0.0965481 0.109721 0.133833 0.176538 0.248922
          0.363315 0.52168 0.697334 0.842617 0.93159 0.974175 0.991246 0.99728 0.999217 0.999789 0.999947 0.999987
          0.999997 0.999999 1 1 1 1 1 1 1 1 1 1
          1 1 1 1
        </DataArray>
        <DataArray type="Float32" Name="total fl. vol." NumberOfComponents="1" format="ascii">
          1 1 1 1 1 1 1 1 1 1 1 1
          1 1 1 1 1 1 1 1 1 1 1 1
          1 1 1 1 1 1 1 1 1 1 1 1
          1 1 1 1 1 1 1 1 1 1 1 1
          1.00012 0.908636 0.998959 0.999994 0.999995 0.999996 0.999996 0.999997 0.999997 0.999997 0.999997 0.999997
          0.999998 0.999998 0.999998 0.999998 0.999998 0.999998 0.999998 0.999998 0.999998 0.999999 0.999999 0.999999
          0.999999 1 1 1 1 1 1 1 1 1 1 1
          1 1 1 1 1 1 1 1 1 1 1 1
          1 1 1 1
        </DataArray>
      </CellData>
      <Points>
        <DataArray type="Float32" Name="Coordinates" NumberOfComponents="3" format="ascii">
          0 0 0 1 0 0 0 1 0 1 1 0
          0 0 1 1 0 1 0 1 1 1 1 1
          0 0 2 1 0 2 0 1 2 1 1 2
          0 0 3 1 0 3 0 1 3 1 1 3
          0 0 4 1 0 4 0 1 4 1 1 4
          0 0 5 1 0 5 0 1 5 1 1 5
          0 0 6 1 0 6 0 1 6 1 1 6
          0 0 7 1 0 7 0 1 7 1 1 7
          0 0 8 1 0 8 0 1 8 1 1 8
          0 0 9 1 0 9 0 1 9 1 1 9
          0 0 10 1 0 10 0 1 10 1 1 10
          0 0 11 1 0 11 0 1 11 1 1 11
          0 0 12 1 0 12 0 1 12 1 1 12
          0 0 13 1 0 13 0 1 13 1 1 13
          0 0 14 1 0 14 0 1 14 1 1 14
          0 0 15 1 0 15 0 1 15 1 1 15
          0 0 16 1 0 16 0 1 16 1 1 16
          0 0 17 1 0 17 0 1 17 1 1 17
          0 0 18 1 0 18 0 1 18 1 1 18
          0 0 19 1 0 19 0 1 19 1 1 19
          0 0 20 1 0 20 0 1 20 1 1 20
          0 0 21 1 0 21 0 1 21 1 1 21
          0 0 22 1 0 22 0 1 22 1 1 22
          0 0 23 1 0 23 0 1 23 1 1 23
          0 0 24 1 0 24 0 1 24 1 1 24
          0 0 25 1 0 25 0 1 25 1 1 25
          0 0 26 1 0 26 0 1 26 1 1 26
          0 0 27 1 0 27 0 1 27 1 1 27
          0 0 28 1 0 28 0 1 28 1 1 28
          0 0 29 1 0 29 0 1 29 1 1 29
          0 0 30 1 0 30 0 1 30 1 1 30
          0 0 31 1 0 31 0 1 31 1 1 31
          0 0 32 1 0 32 0 1 32 1 1 32
          0 0 33 1 0 33 0 1 33 1 1 33
          0 0 34 1 0 34 0 1 34 1 1 34
          0 0 35 1 0 35 0 1 35 1 1 35
          0 0 36 1 0 36 0 1 36 1 1 36
          0 0 37 1 0 37 0 1 37 1 1 37
          0 0 38 1 0 38 0 1 38 1 1 38
          0 0 39 1 0 39 0 1 39 1 1 39
          0 0 40 1 0 40 0 1 40 1 1 40
          0 0 41 1 0 41 0 1 41 1 1 41
          0 0 42 1 0 42 0 1 42 1 1 42
          0 0 43 1 0 43 0 1 43 1 1 43
          0 0 44 1 0 44 0 1 44 1 1 44
          0 0 45 1 0 45 0 1 45 1 1 45
          0 0 46 1 0 46 0 1 46 1 1 46
          0 0 47 1 0 47 0 1 47 1 1 47
          0 0 48 1 0 48 0 1 48 1 1 48
          0 0 49 1 0 49 0 1 49 1 1 49
          0 0 50 1 0 50 0 1 50 1 1 50
          0 0 51 1 0 51 0 1 51 1 1 51
          0 0 52 1 0 52 0 1 52 1 1 52
          0 0 53 1 0 53 0 1 53 1 1 53
          0 0 54 1 0 54 0 1 54 1 1 54
          0 0 55 1 0 55 0 1 55 1 1 55
          0 0 56 1 0 56 0 1 56 1 1 56
          0 0 57 1 0 57 0 1 57 1 1 57
          0 0 58 1 0 58 0 1 58 1 1 58
          0 0 59 1 0 59 0 1 59 1 1 59
          0 0 60 1 0 60 0 1 60 1 1 60
          0 0 61 1 0 61 0 1 61 1 1 61
          0 0 62 1 0 62 0 1 62 1 1 62
          0 0 63 1 0 63 0 1 63 1 1 63
          0 0 64 1 0 64 0 1 64 1 1 64
          0 0 65 1 0 65 0 1 65 1 1 65
          0 0 66 1 0 66 0 1 66 1 1 66
          0 0 67 1 0 67 0 1 67 1 1 67
          0 0 68 1 0 68 0 1 68 1 1 68
          0 0 69 1 0 69 0 1 69 1 1 69
          0 0 70 1 0 70 0 1 70 1 1 70
          0 0 71 1 0 71 0 1 71 1 1 71
          0 0 72 1 0 72 0 1 72 1 1 72
          0 0 73 1 0 73 0 1 73 1 1 73
          0 0 74 1 0 74 0 1 74 1 1 74
          0 0 75 1 0 75 0 1 75 1 1 75
          0 0 76 1 0 76 0 1 76 1 1 76
          0 0 77 1 0 77 0 1 77 1 1 77
          0 0 78 1 0 78 0 1 78 1 1 78
          0 0 79 1 0 79 0 1 79 1 1 79
          0 0 80 1 0 80 0 1 80 1 1 80
          0 0 81 1 0 81 0 1 81 1 1 81
          0 0 82 1 0 82 0 1 82 1 1 82
          0 0 83 1 0 83 0 1 83 1 1 83
          0 0 84 1 0 84 0 1 84 1 1 84
          0 0 85 1 0 85 0 1 85 1 1 85
          0 0 86 1 0 86 0 1 86 1 1 86
          0 0 87 1 0 87 0 1 87 1 1 87
          0 0 88 1 0 88 0 1 88 1 1 88
          0 0 89 1 0 89 0 1 89 1 1 89
          0 0 90 1 0 90 0 1 90 1 1 90
          0 0 91 1 0 91 0 1 91 1 1 91
          0 0 92 1 0 92 0 1 92 1 1 92
          0 0 93 1 0 93 0 1 93 1 1 93
          0 0 94 1 0 94 0 1 94 1 1 94
          0 0 95 1 0 95 0 1 95 1 1 95
          0 0 96 1 0 96 0 1 96 1 1 96
          0 0 97 1 0 97 0 1 97 1 1 97
          0 0 98 1 0 98 0 1 98 1 1 98
          0 0 99 1 0 99 0 1 99 1 1 99
          0 0 100 1 0 100 0 1 100 1 1 100
        </DataArray>
      </Points>
      <Cells>
        <DataArray type="Int32" Name="connectivity" NumberOfComponents="1" format="ascii">
          0 1 3 2 4 5 7 6 4 5 7 6
          8 9 11 10 8 9 11 10 12 13 15 14
          12 13 15 14 16 17 19 18 16 17 19 18
          20 21 23 22 20 21 23 22 24 25 27 26
          24 25 27 26 28 29 31 30 28 29 31 30
          32 33 35 34 32 33 35 34 36 37 39 38
          36 37 39 38 40 41 43 42 40 41 43 42
          44 45 47 46 44 45 47 46 48 49 51 50
          48 49 51 50 52 53 55 54 52 53 55 54
          56 57 59 58 56 57 59 58 60 61 63 62
          60 61 63 62 64 65 67 66 64 65 67 66
          68 69 71 70 68 69 71 70 72 73 75 74
          72 73 75 74 76 77 79 78 76 77 79 78
          80 81 83 82 80 81 83 82 84 85 87 86
          84 85 87 86 88 89 91 90 88 89 91 90
          92 93 95 94 92 93 95 94 96 97 99 98
          96 97 99 98 100 101 103 102 100 101 103 102
          104 105 107 106 104 105 107 106 108 109 111 110
          108 109 111 110 112 113 115 114 112 113 115 114
          116 117 119 118 116 117 119 118 120 121 123 122
          120 121 123 122 124 125 127 126 124 125 127 126
          128 129 131 130 128 129 131 130 132 133 135 134
          132 133 135 134 136 137 139 138 136 137 139 138
          140 141 143 142 140 141 143 142 144 145 147 146
          144 145 147 146 148 149 151 150 148 149 151 150
          152 153 155 154 152 153 155 154 156 157 159 158
          156 157 159 158 160 161 163 162 160 161 163 162
          164 165 167 166 164 165 167 166 168 169 171 170
          168 169 171 170 172 173 175 174 172 173 175 174
          176 177 179 178 176 177 179 178 180 181 183 182
          180 181 183 182 184 185 187 186 184 185 187 186
          188 189 191 190 188 189 191 190 192 193 195 194
          192 193 195 194 196 197 199 198 196 197 199 198
          200 201 203 202 200 201 203 202 204 205 207 206
          204 205 207 206 208 209 211 210 208 209 211 210
          212 213 215 214 212 213 215 214 216 217 219 218
          216 217 219 218 220 221 223 222 220 221 223 222
          224 225 227 226 224 225 227 226 228 229 231 230
          228 229 231 230 232 233 235 234 232 233 235 234
          236 237 239 238 236 237 239 238 240 241 243 242
          240 241 243 242 244 245 247 246 244 245 247 246
          248 249 251 250 248 249 251 250 252 253 255 254
          252 253 255 254 256 257 259 258 256 257 259 258
          260 261 263 262 260 261 263 262 264 265 267 266
          264 265 267 266 268 269 271 270 268 269 271 270
          272 273 275 274 272 273 275 274 276 277 279 278
          276 277 279 278 280 281 283 282 280 281 283 282
          284 285 287 286 284 285 287 286 288 289 291 290
          288 289 291 290 292 293 295 294 292 293 295 294
          296 297 299 298 296 297 299 298 300 301 303 302
          300 301 303 302 304 305 307 306 304 305 307 306
          308 309 311 310 308 309 311 310 312 313 315 314
          312 313 315 314 316 317 319 318 316 317 319 318
          320 321 323 322 320 321 323 322 324 325 327 326
          324 325 327 326 328 329 331 330 328 329 331 330
          332 333 335 334 332 333 335 334 336 337 339 338
          336 337 339 338 340 341 343 342 340 341 343 342
          344 345 347 346 344 345 347 346 348 349 351 350
          348 349 351 350 352 353 355 354 352 353 355 354
          356 357 359 358 356 357 359 358 360 361 363 362
          360 361 363 362 364 365 367 366 364 365 367 366
          368 369 371 370 368 369 371 370 372 373 375 374
          372 373 375 374 376 377 379 378 376 377 379 378
          380 381 383 382 380 381 383 382 384 385 387 386
          384 385 387 386 388 389 391 390 388 389 391 390
          392 393 395 394 392 393 395 394 396 397 399 398
          396 397 399 398 400 401 403 402
        </DataArray>
        <DataArray type="Int32" Name="offsets" NumberOfComponents="1" format="ascii">
          8 16 24 32 40 48 56 64 72 80 88 96
          104 112 120 128 136 144 152 160 168 176 184 192
          200 208 216 224 232 240 248 256 264 272 280 288
          296 304 312 320 328 336 344 352 360 368 376 384
          392 400 408 416 424 432 440 448 456 464 472 480
          488 496 504 512 520 528 536 544 552 560 568 576
          584 592 600 608 616 624 632 640 648 656 664 672
          680 688 696 704 712 720 728 736 744 752 760 768
          776 784 792 800
        </DataArray>
        <DataArray type="UInt8" Name="types" NumberOfComponents="1" format="ascii">
          12 12 12 12 12 12 12 12 12 12 12 12
          12 12 12 12 12 12 12 12 12 12 12 12
          12 12 12 12 12 12 12 12 12 12 12 12
          12 12 12 12 12 12 12 12 12 12 12 12
          12 12 12 12 12 12 12 12 12 12 12 12
          12 12 12 12 12 12 12 12 12 12 12 12
          12 12 12 12 12 12 12 12 12 12 12 12
          12 12 12 12 12 12 12 12 12 12 12 12
          12 12 12 12
        </DataArray>
      </Cells>
    </Piece>
  </UnstructuredGrid>
</VTKFile>
