<?xml version="1.0"?>
<VTKFile type="UnstructuredGrid" version="0.1" byte_order="LittleEndian">
  <UnstructuredGrid>
    <Piece NumberOfCells="100" NumberOfPoints="404">
      <CellData Scalars="pressure[0]">
        <DataArray type="Float32" Name="pressure[0]" NumberOfComponents="1" format="ascii">
          5.76737e+06 5.76788e+06 5.76839e+06 5.7689e+06 5.76941e+06 5.76992e+06 5.77043e+06 5.77094e+06 5.77145e+06 5.77196e+06 5.77247e+06 5.77298e+06
          5.77349e+06 5.774e+06 5.77452e+06 5.77503e+06 5.77554e+06 5.77605e+06 5.77656e+06 5.77707e+06 5.77758e+06 5.77809e+06 5.7786e+06 5.77911e+06
          5.77962e+06 5.78014e+06 5.78065e+06 5.78116e+06 5.78167e+06 5.78218e+06 5.78269e+06 5.7832e+06 5.78378e+06 5.79265e+06 5.8015e+06 5.81037e+06
          5.81923e+06 5.8281e+06 5.83697e+06 5.84584e+06 5.85472e+06 5.86359e+06 5.87246e+06 5.88133e+06 5.8902e+06 5.89906e+06 5.90793e+06 5.9168e+06
          5.92567e+06 5.93455e+06 5.94342e+06 5.95229e+06 5.96117e+06 5.97025e+06 5.97982e+06 5.98952e+06 5.99924e+06 6.00896e+06 6.01867e+06 6.02838e+06
          6.03807e+06 6.04777e+06 6.05745e+06 6.06714e+06 6.07681e+06 6.08648e+06 6.09615e+06 6.10581e+06 6.11546e+06 6.12511e+06 6.13475e+06 6.14439e+06
          6.15402e+06 6.16367e+06 6.17336e+06 6.18322e+06 6.19328e+06 6.20342e+06 6.2136e+06 6.22378e+06 6.23395e+06 6.24413e+06 6.25431e+06 6.26449e+06
          6.27467e+06 6.28485e+06 6.29503e+06 6.30521e+06 6.31539e+06 6.32557e+06 6.33575e+06 6.34593e+06 6.35611e+06 6.36629e+06 6.37646e+06 6.38664e+06
          6.39682e+06 6.407e+06 6.41718e+06 6.42736e+06
        </DataArray>
        <DataArray type="Float32" Name="pressure[1]" NumberOfComponents="1" format="ascii">
          5.76737e+06 5.76788e+06 5.76839e+06 5.7689e+06 5.76941e+06 5.76992e+06 5.77043e+06 5.77094e+06 5.77145e+06 5.77196e+06 5.77247e+06 5.77298e+06
          5.77349e+06 5.774e+06 5.77452e+06 5.77503e+06 5.77554e+06 5.77605e+06 5.77656e+06 5.77707e+06 5.77758e+06 5.77809e+06 5.7786e+06 5.77911e+06
          5.77962e+06 5.78014e+06 5.78065e+06 5.78116e+06 5.78167e+06 5.78218e+06 5.78269e+06 5.7832e+06 5.78378e+06 5.79265e+06 5.8015e+06 5.81037e+06
          5.81923e+06 5.8281e+06 5.83697e+06 5.84584e+06 5.85472e+06 5.86359e+06 5.87246e+06 5.88133e+06 5.8902e+06 5.89906e+06 5.90793e+06 5.9168e+06
          5.92567e+06 5.93455e+06 5.94342e+06 5.95229e+06 5.96117e+06 5.97025e+06 5.97982e+06 5.98952e+06 5.99924e+06 6.00896e+06 6.01867e+06 6.02838e+06
          6.03807e+06 6.04777e+06 6.05745e+06 6.06714e+06 6.07681e+06 6.08648e+06 6.09615e+06 6.10581e+06 6.11546e+06 6.12511e+06 6.13475e+06 6.14439e+06
          6.15402e+06 6.16367e+06 6.17336e+06 6.18322e+06 6.19328e+06 6.20342e+06 6.2136e+06 6.22378e+06 6.23395e+06 6.24413e+06 6.25431e+06 6.26449e+06
          6.27467e+06 6.28485e+06 6.29503e+06 6.30521e+06 6.31539e+06 6.32557e+06 6.33575e+06 6.34593e+06 6.35611e+06 6.36629e+06 6.37646e+06 6.38664e+06
          6.39682e+06 6.407e+06 6.41718e+06 6.42736e+06
        </DataArray>
        <DataArray type="Float32" Name="pressure[2]" NumberOfComponents="1" format="ascii">
          5.76737e+06 5.76788e+06 5.76839e+06 5.7689e+06 5.76941e+06 5.76992e+06 5.77043e+06 5.77094e+06 5.77145e+06 5.77196e+06 5.77247e+06 5.77298e+06
          5.77349e+06 5.774e+06 5.77452e+06 5.77503e+06 5.77554e+06 5.77605e+06 5.77656e+06 5.77707e+06 5.77758e+06 5.77809e+06 5.7786e+06 5.77911e+06
          5.77962e+06 5.78014e+06 5.78065e+06 5.78116e+06 5.78167e+06 5.78218e+06 5.78269e+06 5.7832e+06 5.78378e+06 5.79265e+06 5.8015e+06 5.81037e+06
          5.81923e+06 5.8281e+06 5.83697e+06 5.84584e+06 5.85472e+06 5.86359e+06 5.87246e+06 5.88133e+06 5.8902e+06 5.89906e+06 5.90793e+06 5.9168e+06
          5.92567e+06 5.93455e+06 5.94342e+06 5.95229e+06 5.96117e+06 5.97025e+06 5.97982e+06 5.98952e+06 5.99924e+06 6.00896e+06 6.01867e+06 6.02838e+06
          6.03807e+06 6.04777e+06 6.05745e+06 6.06714e+06 6.07681e+06 6.08648e+06 6.09615e+06 6.10581e+06 6.11546e+06 6.12511e+06 6.13475e+06 6.14439e+06
          6.15402e+06 6.16367e+06 6.17336e+06 6.18322e+06 6.19328e+06 6.20342e+06 6.2136e+06 6.22378e+06 6.23395e+06 6.24413e+06 6.25431e+06 6.26449e+06
          6.27467e+06 6.28485e+06 6.29503e+06 6.30521e+06 6.31539e+06 6.32557e+06 6.33575e+06 6.34593e+06 6.35611e+06 6.36629e+06 6.37646e+06 6.38664e+06
          6.39682e+06 6.407e+06 6.41718e+06 6.42736e+06
        </DataArray>
        <DataArray type="Float32" Name="velocity[0]" NumberOfComponents="1" format="ascii">
          0 0 0 0 0 0 0 0 0 0 0 0
          0 0 0 0 0 0 0 0 0 0 0 0
          0 0 0 0 0 0 0 0 0 0 0 0
          0 0 0 0 0 0 0 0 0 0 0 0
          0 0 0 0 0 0 0 0 0 0 0 0
          0 0 0 0 0 0 0 0 0 0 0 0
          0 0 0 0 0 0 0 0 0 0 0 0
          0 0 0 0 0 0 0 0 0 0 0 0
          0 0 0 0
        </DataArray>
        <DataArray type="Float32" Name="velocity[1]" NumberOfComponents="1" format="ascii">
          0 0 0 0 0 0 0 0 0 0 0 0
          0 0 0 0 0 0 0 0 0 0 0 0
          0 0 0 0 0 0 0 0 0 0 0 0
          0 0 0 0 0 0 0 0 0 0 0 0
          0 0 0 0 0 0 0 0 0 0 0 0
          0 0 0 0 0 0 0 0 0 0 0 0
          0 0 0 0 0 0 0 0 0 0 0 0
          0 0 0 0 0 0 0 0 0 0 0 0
          0 0 0 0
        </DataArray>
        <DataArray type="Float32" Name="velocity[2]" NumberOfComponents="1" format="ascii">
          -3.4208e-14 -1.02599e-13 -1.70965e-13 -2.39335e-13 -3.07712e-13 -3.76087e-13 -4.44457e-13 -5.12837e-13 -5.81211e-13 -6.49593e-13 -7.17986e-13 -7.86386e-13
          -8.54807e-13 -9.23225e-13 -9.91658e-13 -1.06013e-12 -1.12861e-12 -1.1971e-12 -1.26562e-12 -1.33416e-12 -1.40272e-12 -1.47132e-12 -1.53994e-12 -1.60858e-12
          -1.67725e-12 -1.74595e-12 -1.81468e-12 -1.88346e-12 -1.95227e-12 -2.02112e-12 -2.09e-12 -2.43143e-12 -2.76838e-12 -3.1253e-12 -3.33598e-12 -3.14221e-12
          -3.00148e-12 -2.89627e-12 -2.84119e-12 -2.83869e-12 -2.87179e-12 -2.91641e-12 -2.95269e-12 -2.97218e-12 -2.9777e-12 -2.9766e-12 -2.97324e-12 -2.96657e-12
          -2.95318e-12 -2.93264e-12 -2.94492e-12 -4.08997e-12 -8.55932e-12 -1.60643e-11 -2.29927e-11 -2.84028e-11 -3.23015e-11 -3.39322e-11 -3.39384e-11 -3.25839e-11
          -3.01193e-11 -2.68611e-11 -2.3168e-11 -1.9403e-11 -1.58956e-11 -1.2907e-11 -1.06022e-11 -9.03118e-12 -8.12347e-12 -7.70006e-12 -7.50339e-12 -7.2447e-12
          -6.66455e-12 -5.59406e-12 -4.00055e-12 -2.29521e-12 -1.02149e-12 -3.35528e-13 -8.60003e-14 -1.91346e-14 -3.32762e-15 1.67991e-16 9.49784e-16 1.43407e-15
          -9.53111e-16 -1.83325e-15 -1.36868e-17 -1.34884e-17 -1.31984e-17 -1.32272e-17 -1.33046e-17 -1.31064e-17 -1.32272e-17 -1.33965e-17 -1.33822e-17 -1.37787e-17
          -1.35804e-17 -1.3227e-17 -1.35028e-17 -6.77574e-18
        </DataArray>
        <DataArray type="Float32" Name="z[0]" NumberOfComponents="1" format="ascii">
          0 0 0 0 0 0 0 0 0 0 0 0
          0 0 0 0 0 0 0 0 0 0 0 0
          0 0 0 0 0 0 0 0 0 0 0 0
          0 0 0 0 0 0 0 0 0 0 0 0
          0 0 2.15898e-07 1.17852e-05 0.000588849 0.0240998 0.234196 0.417859 0.445121 0.44364 0.439235 0.434584
          0.429952 0.425372 0.420852 0.416394 0.411999 0.407667 0.403395 0.399179 0.395018 0.39092 0.386952 0.38347
          0.382298 0.392521 0.452678 0.639158 0.8652 0.966549 0.992843 0.998573 0.999731 0.999952 0.999992 0.999999
          1 1 1 1 1 1 1 1 1 1 1 1
          1 1 1 1
        </DataArray>
        <DataArray type="Float32" Name="z[1]" NumberOfComponents="1" format="ascii">
          0 0 0 0 0 0 0 2.88322e-18 0 0 0 0
          0 0 0 0 0 0 0 0 0 0 0 0
          0 0 2.95029e-17 0 0 0 0 0 0.387377 0.978207 0.976579 0.975661
          0.974944 0.974375 0.974102 0.974125 0.974339 0.974607 0.974815 0.974919 0.974944 0.97494 0.974934 0.974914
          0.974854 0.974746 0.974609 0.974466 0.973801 0.950912 0.746338 0.567481 0.540996 0.542516 0.546872 0.551451
          0.555994 0.56047 0.564876 0.569213 0.573485 0.577697 0.581855 0.585967 0.590034 0.594048 0.597941 0.601362
          0.602526 0.592571 0.533899 0.351998 0.131502 0.0326339 0.00698203 0.00139207 0.000262286 4.67414e-05 7.85904e-06 1.23917e-06
          1.78611e-07 2.07956e-08 0 0 0 0 0 0 0 0 0 0
          0 0 0 0
        </DataArray>
        <DataArray type="Float32" Name="z[2]" NumberOfComponents="1" format="ascii">
          68.3466 68.3527 68.3587 68.3648 68.3709 68.3769 68.383 68.389 68.3951 68.4012 68.4072 68.4133
          68.4194 68.4254 68.4315 68.4376 68.4436 68.4497 68.4558 68.4618 68.4679 68.474 68.48 68.4861
          68.4922 68.4983 68.5043 68.5104 68.5165 68.5226 68.5286 65.541 65.4844 53.8352 56.5379 58.0708
          59.324 60.3275 60.82 60.8051 60.4627 60.0278 59.6957 59.5426 59.5245 59.5554 59.591 59.6505
          59.7775 59.988 60.2485 60.492 60.6184 59.2404 46.4605 35.2792 33.5782 33.6098 33.8116 34.0258
          34.2404 34.4569 34.6773 34.9031 35.1345 35.3707 35.6103 35.8512 36.091 36.3271 36.5539 36.7495
          36.8056 36.1829 32.5888 21.4798 8.02271 1.99047 0.42575 0.0848609 0.0159841 0.00284814 0.000479539 7.63745e-05
          1.10929e-05 7.61049e-07 0 0 0 0 0 0 0 0 0 0
          0 0 0 0
        </DataArray>
        <DataArray type="Float32" Name="sat[0]" NumberOfComponents="1" format="ascii">
          0 0 0 0 0 0 0 0 0 0 0 0
          0 0 0 0 0 0 0 0 0 0 0 0
          0 0 0 0 0 0 0 0 0 0 0 0
          0 0 0 0 0 0 0 0 0 0 0 0
          0 0 2.15898e-07 1.17852e-05 0.000588865 0.0240996 0.234168 0.417777 0.445015 0.443519 0.439108 0.434459
          0.429837 0.425271 0.420768 0.416329 0.411952 0.407634 0.403373 0.399163 0.395004 0.390906 0.386935 0.38345
          0.382277 0.392499 0.452658 0.639142 0.86519 0.966546 0.992843 0.998573 0.999731 0.999952 0.999992 0.999999
          1 1 1 1 1 1 1 1 1 1 1 1
          1 1 1 1
        </DataArray>
        <DataArray type="Float32" Name="sat[1]" NumberOfComponents="1" format="ascii">
          0 0 0 0 0 0 0 2.96004e-18 0 0 0 0
          0 0 0 0 0 0 0 0 0 0 0 0
          0 0 3.02903e-17 0 0 0 0 0 0.397725 1 1 1
          1 1 1 1 1 1 1 1 1 1 1 1
          1 1 1 0.999988 0.999411 0.9759 0.765832 0.582223 0.554985 0.556481 0.560892 0.565541
          0.570163 0.574729 0.579232 0.583671 0.588048 0.592366 0.596627 0.600837 0.604996 0.609094 0.613065 0.61655
          0.617723 0.607501 0.547342 0.360858 0.13481 0.0334544 0.00715742 0.00142701 0.00026886 4.7912e-05 8.05611e-06 1.27067e-06
          1.83195e-07 2.10151e-08 0 0 0 0 0 0 0 0 0 0
          0 0 0 0
        </DataArray>
        <DataArray type="Float32" Name="sat[2]" NumberOfComponents="1" format="ascii">
          1 1 1 1 1 1 1 1 1 1 1 1
          1 1 1 1 1 1 1 1 1 1 1 1
          1 1 1 1 1 1 1 1 0.602275 0 0 0
          0 0 0 0 0 0 0 0 0 0 0 0
          0 0 0 0 0 0 0 0 0 0 0 0
          0 0 0 0 0 0 0 0 0 0 0 0
          0 0 0 0 0 0 0 0 0 0 0 0
          0 0 0 0 0 0 0 0 0 0 0 0
          0 0 0 0
        </DataArray>
        <DataArray type="Float32" Name="massFrac[0]" NumberOfComponents="1" format="ascii">
          0 0 0 0 0 0 0 0 0 0 0 0
          0 0 0 0 0 0 0 0 0 0 0 0
          0 0 0 0 0 0 0 0 0 0 0 0
          0 0 0 0 0 0 0 0 0 0 0 0
          0 0 2.47716e-07 1.35209e-05 0.000675495 0.0275489 0.259683 0.451505 0.479134 0.477625 0.473168 0.468464
          0.46378 0.459147 0.454571 0.450053 0.445591 0.441184 0.436829 0.432521 0.428259 0.424054 0.419976 0.416393
          0.415185 0.425679 0.486845 0.670166 0.880415 0.970711 0.993755 0.998756 0.999766 0.999958 0.999993 0.999999
          1 1 1 1 1 1 1 1 1 1 1 1
          1 1 1 1
        </DataArray>
        <DataArray type="Float32" Name="massFrac[1]" NumberOfComponents="1" format="ascii">
          0 0 0 0 0 0 0 4.88181e-17 0 0 0 0
          0 0 0 0 0 0 0 0 0 0 0 0
          0 0 4.98697e-16 0 0 0 0 0 0.87261 0.954629 0.952384 0.951112
          0.950075 0.949245 0.948838 0.948851 0.949135 0.949496 0.949772 0.949899 0.949915 0.94989 0.949861 0.949812
          0.949708 0.949535 0.949319 0.949106 0.948343 0.922804 0.702548 0.520548 0.494367 0.495846 0.500128 0.504646
          0.509142 0.513585 0.517968 0.52229 0.52655 0.530752 0.5349 0.539 0.543055 0.547056 0.550937 0.554351
          0.55551 0.545553 0.487459 0.313322 0.1136 0.0278235 0.00593277 0.001182 0.000222673 3.96809e-05 6.67186e-06 1.05199e-06
          1.5163e-07 1.76543e-08 0 0 0 0 0 0 0 0 0 0
          0 0 0 0
        </DataArray>
        <DataArray type="Float32" Name="massFrac[2]" NumberOfComponents="1" format="ascii">
          1 1 1 1 1 1 1 1 1 1 1 1
          1 1 1 1 1 1 1 1 1 1 1 1
          1 1 1 1 1 1 1 1 0.12739 0.0453713 0.0476162 0.0488878
          0.0499251 0.0507549 0.0511616 0.0511486 0.0508646 0.050504 0.0502285 0.0501011 0.0500854 0.0501103 0.050139 0.0501876
          0.050292 0.0504654 0.0506802 0.050881 0.0509812 0.0496475 0.037769 0.0279472 0.0264987 0.0265283 0.0267037 0.0268905
          0.0270781 0.0272675 0.0274604 0.0276574 0.0278587 0.0280637 0.0282711 0.0284793 0.0286864 0.0288903 0.0290863 0.0292557
          0.0293049 0.028768 0.0256956 0.0165117 0.00598521 0.00146558 0.000312421 6.22263e-05 1.1719e-05 2.0881e-06 3.5157e-07 5.59933e-08
          8.13263e-09 5.57956e-10 0 0 0 0 0 0 0 0 0 0
          0 0 0 0
        </DataArray>
        <DataArray type="Float32" Name="total fl. vol." NumberOfComponents="1" format="ascii">
          1 1 1 1 1 1 1 1 1 1 1 1
          1 1 1 1 1 1 1 1 1 1 1 1
          1 1 1 1 1 1 1 0.956319 0.999989 1 1 1
          1 1 1 1 1 1 1 1 1 1 1 1
          1 1 1 0.999997 0.999973 1.00001 1.00012 1.00019 1.00024 1.00027 1.00029 1.00029
          1.00027 1.00024 1.0002 1.00016 1.00011 1.00008 1.00005 1.00004 1.00003 1.00004 1.00004 1.00005
          1.00006 1.00005 1.00004 1.00003 1.00001 1 1 1 1 1 1 1
          1 1 1 1 1 1 1 1 1 1 1 1
          1 1 1 1
        </DataArray>
      </CellData>
      <Points>
        <DataArray type="Float32" Name="Coordinates" NumberOfComponents="3" format="ascii">
          0 0 0 1 0 0 0 1 0 1 1 0
          0 0 1 1 0 1 0 1 1 1 1 1
          0 0 2 1 0 2 0 1 2 1 1 2
          0 0 3 1 0 3 0 1 3 1 1 3
          0 0 4 1 0 4 0 1 4 1 1 4
          0 0 5 1 0 5 0 1 5 1 1 5
          0 0 6 1 0 6 0 1 6 1 1 6
          0 0 7 1 0 7 0 1 7 1 1 7
          0 0 8 1 0 8 0 1 8 1 1 8
          0 0 9 1 0 9 0 1 9 1 1 9
          0 0 10 1 0 10 0 1 10 1 1 10
          0 0 11 1 0 11 0 1 11 1 1 11
          0 0 12 1 0 12 0 1 12 1 1 12
          0 0 13 1 0 13 0 1 13 1 1 13
          0 0 14 1 0 14 0 1 14 1 1 14
          0 0 15 1 0 15 0 1 15 1 1 15
          0 0 16 1 0 16 0 1 16 1 1 16
          0 0 17 1 0 17 0 1 17 1 1 17
          0 0 18 1 0 18 0 1 18 1 1 18
          0 0 19 1 0 19 0 1 19 1 1 19
          0 0 20 1 0 20 0 1 20 1 1 20
          0 0 21 1 0 21 0 1 21 1 1 21
          0 0 22 1 0 22 0 1 22 1 1 22
          0 0 23 1 0 23 0 1 23 1 1 23
          0 0 24 1 0 24 0 1 24 1 1 24
          0 0 25 1 0 25 0 1 25 1 1 25
          0 0 26 1 0 26 0 1 26 1 1 26
          0 0 27 1 0 27 0 1 27 1 1 27
          0 0 28 1 0 28 0 1 28 1 1 28
          0 0 29 1 0 29 0 1 29 1 1 29
          0 0 30 1 0 30 0 1 30 1 1 30
          0 0 31 1 0 31 0 1 31 1 1 31
          0 0 32 1 0 32 0 1 32 1 1 32
          0 0 33 1 0 33 0 1 33 1 1 33
          0 0 34 1 0 34 0 1 34 1 1 34
          0 0 35 1 0 35 0 1 35 1 1 35
          0 0 36 1 0 36 0 1 36 1 1 36
          0 0 37 1 0 37 0 1 37 1 1 37
          0 0 38 1 0 38 0 1 38 1 1 38
          0 0 39 1 0 39 0 1 39 1 1 39
          0 0 40 1 0 40 0 1 40 1 1 40
          0 0 41 1 0 41 0 1 41 1 1 41
          0 0 42 1 0 42 0 1 42 1 1 42
          0 0 43 1 0 43 0 1 43 1 1 43
          0 0 44 1 0 44 0 1 44 1 1 44
          0 0 45 1 0 45 0 1 45 1 1 45
          0 0 46 1 0 46 0 1 46 1 1 46
          0 0 47 1 0 47 0 1 47 1 1 47
          0 0 48 1 0 48 0 1 48 1 1 48
          0 0 49 1 0 49 0 1 49 1 1 49
          0 0 50 1 0 50 0 1 50 1 1 50
          0 0 51 1 0 51 0 1 51 1 1 51
          0 0 52 1 0 52 0 1 52 1 1 52
          0 0 53 1 0 53 0 1 53 1 1 53
          0 0 54 1 0 54 0 1 54 1 1 54
          0 0 55 1 0 55 0 1 55 1 1 55
          0 0 56 1 0 56 0 1 56 1 1 56
          0 0 57 1 0 57 0 1 57 1 1 57
          0 0 58 1 0 58 0 1 58 1 1 58
          0 0 59 1 0 59 0 1 59 1 1 59
          0 0 60 1 0 60 0 1 60 1 1 60
          0 0 61 1 0 61 0 1 61 1 1 61
          0 0 62 1 0 62 0 1 62 1 1 62
          0 0 63 1 0 63 0 1 63 1 1 63
          0 0 64 1 0 64 0 1 64 1 1 64
          0 0 65 1 0 65 0 1 65 1 1 65
          0 0 66 1 0 66 0 1 66 1 1 66
          0 0 67 1 0 67 0 1 67 1 1 67
          0 0 68 1 0 68 0 1 68 1 1 68
          0 0 69 1 0 69 0 1 69 1 1 69
          0 0 70 1 0 70 0 1 70 1 1 70
          0 0 71 1 0 71 0 1 71 1 1 71
          0 0 72 1 0 72 0 1 72 1 1 72
          0 0 73 1 0 73 0 1 73 1 1 73
          0 0 74 1 0 74 0 1 74 1 1 74
          0 0 75 1 0 75 0 1 75 1 1 75
          0 0 76 1 0 76 0 1 76 1 1 76
          0 0 77 1 0 77 0 1 77 1 1 77
          0 0 78 1 0 78 0 1 78 1 1 78
          0 0 79 1 0 79 0 1 79 1 1 79
          0 0 80 1 0 80 0 1 80 1 1 80
          0 0 81 1 0 81 0 1 81 1 1 81
          0 0 82 1 0 82 0 1 82 1 1 82
          0 0 83 1 0 83 0 1 83 1 1 83
          0 0 84 1 0 84 0 1 84 1 1 84
          0 0 85 1 0 85 0 1 85 1 1 85
          0 0 86 1 0 86 0 1 86 1 1 86
          0 0 87 1 0 87 0 1 87 1 1 87
          0 0 88 1 0 88 0 1 88 1 1 88
          0 0 89 1 0 89 0 1 89 1 1 89
          0 0 90 1 0 90 0 1 90 1 1 90
          0 0 91 1 0 91 0 1 91 1 1 91
          0 0 92 1 0 92 0 1 92 1 1 92
          0 0 93 1 0 93 0 1 93 1 1 93
          0 0 94 1 0 94 0 1 94 1 1 94
          0 0 95 1 0 95 0 1 95 1 1 95
          0 0 96 1 0 96 0 1 96 1 1 96
          0 0 97 1 0 97 0 1 97 1 1 97
          0 0 98 1 0 98 0 1 98 1 1 98
          0 0 99 1 0 99 0 1 99 1 1 99
          0 0 100 1 0 100 0 1 100 1 1 100
        </DataArray>
      </Points>
      <Cells>
        <DataArray type="Int32" Name="connectivity" NumberOfComponents="1" format="ascii">
          0 1 3 2 4 5 7 6 4 5 7 6
          8 9 11 10 8 9 11 10 12 13 15 14
          12 13 15 14 16 17 19 18 16 17 19 18
          20 21 23 22 20 21 23 22 24 25 27 26
          24 25 27 26 28 29 31 30 28 29 31 30
          32 33 35 34 32 33 35 34 36 37 39 38
          36 37 39 38 40 41 43 42 40 41 43 42
          44 45 47 46 44 45 47 46 48 49 51 50
          48 49 51 50 52 53 55 54 52 53 55 54
          56 57 59 58 56 57 59 58 60 61 63 62
          60 61 63 62 64 65 67 66 64 65 67 66
          68 69 71 70 68 69 71 70 72 73 75 74
          72 73 75 74 76 77 79 78 76 77 79 78
          80 81 83 82 80 81 83 82 84 85 87 86
          84 85 87 86 88 89 91 90 88 89 91 90
          92 93 95 94 92 93 95 94 96 97 99 98
          96 97 99 98 100 101 103 102 100 101 103 102
          104 105 107 106 104 105 107 106 108 109 111 110
          108 109 111 110 112 113 115 114 112 113 115 114
          116 117 119 118 116 117 119 118 120 121 123 122
          120 121 123 122 124 125 127 126 124 125 127 126
          128 129 131 130 128 129 131 130 132 133 135 134
          132 133 135 134 136 137 139 138 136 137 139 138
          140 141 143 142 140 141 143 142 144 145 147 146
          144 145 147 146 148 149 151 150 148 149 151 150
          152 153 155 154 152 153 155 154 156 157 159 158
          156 157 159 158 160 161 163 162 160 161 163 162
          164 165 167 166 164 165 167 166 168 169 171 170
          168 169 171 170 172 173 175 174 172 173 175 174
          176 177 179 178 176 177 179 178 180 181 183 182
          180 181 183 182 184 185 187 186 184 185 187 186
          188 189 191 190 188 189 191 190 192 193 195 194
          192 193 195 194 196 197 199 198 196 197 199 198
          200 201 203 202 200 201 203 202 204 205 207 206
          204 205 207 206 208 209 211 210 208 209 211 210
          212 213 215 214 212 213 215 214 216 217 219 218
          216 217 219 218 220 221 223 222 220 221 223 222
          224 225 227 226 224 225 227 226 228 229 231 230
          228 229 231 230 232 233 235 234 232 233 235 234
          236 237 239 238 236 237 239 238 240 241 243 242
          240 241 243 242 244 245 247 246 244 245 247 246
          248 249 251 250 248 249 251 250 252 253 255 254
          252 253 255 254 256 257 259 258 256 257 259 258
          260 261 263 262 260 261 263 262 264 265 267 266
          264 265 267 266 268 269 271 270 268 269 271 270
          272 273 275 274 272 273 275 274 276 277 279 278
          276 277 279 278 280 281 283 282 280 281 283 282
          284 285 287 286 284 285 287 286 288 289 291 290
          288 289 291 290 292 293 295 294 292 293 295 294
          296 297 299 298 296 297 299 298 300 301 303 302
          300 301 303 302 304 305 307 306 304 305 307 306
          308 309 311 310 308 309 311 310 312 313 315 314
          312 313 315 314 316 317 319 318 316 317 319 318
          320 321 323 322 320 321 323 322 324 325 327 326
          324 325 327 326 328 329 331 330 328 329 331 330
          332 333 335 334 332 333 335 334 336 337 339 338
          336 337 339 338 340 341 343 342 340 341 343 342
          344 345 347 346 344 345 347 346 348 349 351 350
          348 349 351 350 352 353 355 354 352 353 355 354
          356 357 359 358 356 357 359 358 360 361 363 362
          360 361 363 362 364 365 367 366 364 365 367 366
          368 369 371 370 368 369 371 370 372 373 375 374
          372 373 375 374 376 377 379 378 376 377 379 378
          380 381 383 382 380 381 383 382 384 385 387 386
          384 385 387 386 388 389 391 390 388 389 391 390
          392 393 395 394 392 393 395 394 396 397 399 398
          396 397 399 398 400 401 403 402
        </DataArray>
        <DataArray type="Int32" Name="offsets" NumberOfComponents="1" format="ascii">
          8 16 24 32 40 48 56 64 72 80 88 96
          104 112 120 128 136 144 152 160 168 176 184 192
          200 208 216 224 232 240 248 256 264 272 280 288
          296 304 312 320 328 336 344 352 360 368 376 384
          392 400 408 416 424 432 440 448 456 464 472 480
          488 496 504 512 520 528 536 544 552 560 568 576
          584 592 600 608 616 624 632 640 648 656 664 672
          680 688 696 704 712 720 728 736 744 752 760 768
          776 784 792 800
        </DataArray>
        <DataArray type="UInt8" Name="types" NumberOfComponents="1" format="ascii">
          12 12 12 12 12 12 12 12 12 12 12 12
          12 12 12 12 12 12 12 12 12 12 12 12
          12 12 12 12 12 12 12 12 12 12 12 12
          12 12 12 12 12 12 12 12 12 12 12 12
          12 12 12 12 12 12 12 12 12 12 12 12
          12 12 12 12 12 12 12 12 12 12 12 12
          12 12 12 12 12 12 12 12 12 12 12 12
          12 12 12 12 12 12 12 12 12 12 12 12
          12 12 12 12
        </DataArray>
      </Cells>
    </Piece>
  </UnstructuredGrid>
</VTKFile>
