<?xml version="1.0"?>
<VTKFile type="UnstructuredGrid" version="0.1" byte_order="LittleEndian">
  <UnstructuredGrid>
    <Piece NumberOfCells="100" NumberOfPoints="404">
      <CellData Scalars="pressure[0]">
        <DataArray type="Float32" Name="pressure[0]" NumberOfComponents="1" format="ascii">
          5.76844e+06 5.76895e+06 5.76946e+06 5.76997e+06 5.77048e+06 5.77099e+06 5.7715e+06 5.77201e+06 5.77252e+06 5.77304e+06 5.77355e+06 5.77406e+06
          5.77457e+06 5.77508e+06 5.77559e+06 5.7761e+06 5.77661e+06 5.77712e+06 5.77763e+06 5.77814e+06 5.77865e+06 5.77917e+06 5.77968e+06 5.78019e+06
          5.7807e+06 5.78121e+06 5.78172e+06 5.78223e+06 5.78274e+06 5.78326e+06 5.78377e+06 5.78428e+06 5.78486e+06 5.79372e+06 5.80318e+06 5.81317e+06
          5.82316e+06 5.83314e+06 5.84311e+06 5.85307e+06 5.86301e+06 5.87295e+06 5.88287e+06 5.89278e+06 5.90269e+06 5.91258e+06 5.92246e+06 5.93232e+06
          5.94218e+06 5.95203e+06 5.96186e+06 5.97168e+06 5.98149e+06 5.99129e+06 6.00108e+06 6.01086e+06 6.02063e+06 6.03038e+06 6.04013e+06 6.04986e+06
          6.05959e+06 6.0693e+06 6.07901e+06 6.08871e+06 6.09839e+06 6.10807e+06 6.11774e+06 6.12739e+06 6.13704e+06 6.14668e+06 6.15631e+06 6.16593e+06
          6.17554e+06 6.18514e+06 6.19474e+06 6.20432e+06 6.2139e+06 6.22346e+06 6.23302e+06 6.24256e+06 6.2521e+06 6.26163e+06 6.27115e+06 6.28066e+06
          6.29016e+06 6.29966e+06 6.30914e+06 6.31862e+06 6.32809e+06 6.33755e+06 6.347e+06 6.35647e+06 6.36605e+06 6.37602e+06 6.38617e+06 6.39635e+06
          6.40653e+06 6.41671e+06 6.42689e+06 6.43707e+06
        </DataArray>
        <DataArray type="Float32" Name="pressure[1]" NumberOfComponents="1" format="ascii">
          5.76844e+06 5.76895e+06 5.76946e+06 5.76997e+06 5.77048e+06 5.77099e+06 5.7715e+06 5.77201e+06 5.77252e+06 5.77304e+06 5.77355e+06 5.77406e+06
          5.77457e+06 5.77508e+06 5.77559e+06 5.7761e+06 5.77661e+06 5.77712e+06 5.77763e+06 5.77814e+06 5.77865e+06 5.77917e+06 5.77968e+06 5.78019e+06
          5.7807e+06 5.78121e+06 5.78172e+06 5.78223e+06 5.78274e+06 5.78326e+06 5.78377e+06 5.78428e+06 5.78486e+06 5.79372e+06 5.80318e+06 5.81317e+06
          5.82316e+06 5.83314e+06 5.84311e+06 5.85307e+06 5.86301e+06 5.87295e+06 5.88287e+06 5.89278e+06 5.90269e+06 5.91258e+06 5.92246e+06 5.93232e+06
          5.94218e+06 5.95203e+06 5.96186e+06 5.97168e+06 5.98149e+06 5.99129e+06 6.00108e+06 6.01086e+06 6.02063e+06 6.03038e+06 6.04013e+06 6.04986e+06
          6.05959e+06 6.0693e+06 6.07901e+06 6.08871e+06 6.09839e+06 6.10807e+06 6.11774e+06 6.12739e+06 6.13704e+06 6.14668e+06 6.15631e+06 6.16593e+06
          6.17554e+06 6.18514e+06 6.19474e+06 6.20432e+06 6.2139e+06 6.22346e+06 6.23302e+06 6.24256e+06 6.2521e+06 6.26163e+06 6.27115e+06 6.28066e+06
          6.29016e+06 6.29966e+06 6.30914e+06 6.31862e+06 6.32809e+06 6.33755e+06 6.347e+06 6.35647e+06 6.36605e+06 6.37602e+06 6.38617e+06 6.39635e+06
          6.40653e+06 6.41671e+06 6.42689e+06 6.43707e+06
        </DataArray>
        <DataArray type="Float32" Name="pressure[2]" NumberOfComponents="1" format="ascii">
          5.76844e+06 5.76895e+06 5.76946e+06 5.76997e+06 5.77048e+06 5.77099e+06 5.7715e+06 5.77201e+06 5.77252e+06 5.77304e+06 5.77355e+06 5.77406e+06
          5.77457e+06 5.77508e+06 5.77559e+06 5.7761e+06 5.77661e+06 5.77712e+06 5.77763e+06 5.77814e+06 5.77865e+06 5.77917e+06 5.77968e+06 5.78019e+06
          5.7807e+06 5.78121e+06 5.78172e+06 5.78223e+06 5.78274e+06 5.78326e+06 5.78377e+06 5.78428e+06 5.78486e+06 5.79372e+06 5.80318e+06 5.81317e+06
          5.82316e+06 5.83314e+06 5.84311e+06 5.85307e+06 5.86301e+06 5.87295e+06 5.88287e+06 5.89278e+06 5.90269e+06 5.91258e+06 5.92246e+06 5.93232e+06
          5.94218e+06 5.95203e+06 5.96186e+06 5.97168e+06 5.98149e+06 5.99129e+06 6.00108e+06 6.01086e+06 6.02063e+06 6.03038e+06 6.04013e+06 6.04986e+06
          6.05959e+06 6.0693e+06 6.07901e+06 6.08871e+06 6.09839e+06 6.10807e+06 6.11774e+06 6.12739e+06 6.13704e+06 6.14668e+06 6.15631e+06 6.16593e+06
          6.17554e+06 6.18514e+06 6.19474e+06 6.20432e+06 6.2139e+06 6.22346e+06 6.23302e+06 6.24256e+06 6.2521e+06 6.26163e+06 6.27115e+06 6.28066e+06
          6.29016e+06 6.29966e+06 6.30914e+06 6.31862e+06 6.32809e+06 6.33755e+06 6.347e+06 6.35647e+06 6.36605e+06 6.37602e+06 6.38617e+06 6.39635e+06
          6.40653e+06 6.41671e+06 6.42689e+06 6.43707e+06
        </DataArray>
        <DataArray type="Float32" Name="velocity[0]" NumberOfComponents="1" format="ascii">
          0 0 0 0 0 0 0 0 0 0 0 0
          0 0 0 0 0 0 0 0 0 0 0 0
          0 0 0 0 0 0 0 0 0 0 0 0
          0 0 0 0 0 0 0 0 0 0 0 0
          0 0 0 0 0 0 0 0 0 0 0 0
          0 0 0 0 0 0 0 0 0 0 0 0
          0 0 0 0 0 0 0 0 0 0 0 0
          0 0 0 0 0 0 0 0 0 0 0 0
          0 0 0 0
        </DataArray>
        <DataArray type="Float32" Name="velocity[1]" NumberOfComponents="1" format="ascii">
          0 0 0 0 0 0 0 0 0 0 0 0
          0 0 0 0 0 0 0 0 0 0 0 0
          0 0 0 0 0 0 0 0 0 0 0 0
          0 0 0 0 0 0 0 0 0 0 0 0
          0 0 0 0 0 0 0 0 0 0 0 0
          0 0 0 0 0 0 0 0 0 0 0 0
          0 0 0 0 0 0 0 0 0 0 0 0
          0 0 0 0 0 0 0 0 0 0 0 0
          0 0 0 0
        </DataArray>
        <DataArray type="Float32" Name="velocity[2]" NumberOfComponents="1" format="ascii">
          1.82854e-13 5.48563e-13 9.14281e-13 1.28003e-12 1.64585e-12 2.01174e-12 2.37773e-12 2.74387e-12 3.11017e-12 3.47665e-12 3.84334e-12 4.21028e-12
          4.57748e-12 4.94497e-12 5.31276e-12 5.6809e-12 6.04942e-12 6.41833e-12 6.78765e-12 7.15742e-12 7.52766e-12 7.89839e-12 8.26964e-12 8.64144e-12
          9.01382e-12 9.38678e-12 9.76037e-12 1.01346e-11 1.05095e-11 1.08851e-11 1.12615e-11 1.89426e-11 1.92054e-11 3.85069e-11 2.89624e-11 6.34521e-12
          2.03789e-11 2.25764e-11 2.79001e-11 3.57988e-11 4.30454e-11 4.63689e-11 4.33168e-11 3.33361e-11 1.78481e-11 -5.85163e-13 -1.9513e-11 -3.7523e-11
          -5.43361e-11 -7.01072e-11 -8.44235e-11 -9.5618e-11 -1.00847e-10 -9.70561e-11 -8.25769e-11 -5.86851e-11 -3.02546e-11 -4.82536e-12 9.90525e-12 9.25711e-12
          -6.06465e-12 -2.96823e-11 -5.16625e-11 -6.22222e-11 -5.55366e-11 -3.21809e-11 7.95537e-13 3.24409e-11 5.23619e-11 5.51344e-11 4.22509e-11 2.03596e-11
          -2.96706e-12 -2.28883e-11 -3.80559e-11 -4.88241e-11 -5.5235e-11 -5.66475e-11 -5.28384e-11 -4.4999e-11 -3.54121e-11 -2.60439e-11 -1.74469e-11 -9.19963e-12
          -1.59625e-12 3.26984e-12 2.62119e-12 -4.37586e-12 -1.5059e-11 -2.44869e-11 -2.84336e-11 -2.55347e-11 -1.70138e-11 -7.27749e-12 -1.57827e-12 -1.11712e-13
          -3.91172e-15 1.80206e-16 1.05031e-16 -3.83448e-18
        </DataArray>
        <DataArray type="Float32" Name="z[0]" NumberOfComponents="1" format="ascii">
          0 0 0 0 0 0 0 0 0 0 0 0
          0 0 0 0 0 0 0 0 0 0 0 0
          0 0 0 0 0 0 0 0 0 1.38597e-05 0.174562 0.693224
          0.720624 0.707186 0.693135 0.679414 0.66608 0.65316 0.640635 0.628445 0.61651 0.604753 0.593125 0.581616
          0.570244 0.559036 0.548015 0.537185 0.526544 0.516094 0.505858 0.495891 0.486265 0.477047 0.468264 0.459881
          0.4518 0.443884 0.436007 0.428093 0.420145 0.412239 0.404493 0.397014 0.389856 0.382996 0.376344 0.369794
          0.36327 0.35675 0.350253 0.343807 0.337427 0.331117 0.324886 0.318751 0.312735 0.306851 0.301101 0.29548
          0.289996 0.284663 0.279489 0.274458 0.269544 0.264821 0.261465 0.271698 0.394557 0.779026 0.974411 0.998084
          0.999889 0.999996 1 1
        </DataArray>
        <DataArray type="Float32" Name="z[1]" NumberOfComponents="1" format="ascii">
          0 0 0 0 0 0 0 2.88322e-18 0 0 0 0
          0 0 0 0 0 0 0 0 0 0 0 0
          0 0 2.95029e-17 0 0 0 0 0 0.392141 0.975779 0.802405 0.298106
          0.272037 0.285117 0.298715 0.31195 0.324789 0.337246 0.349375 0.361255 0.372965 0.384564 0.396074 0.407489
          0.418786 0.42994 0.440926 0.451724 0.462299 0.472598 0.482553 0.492093 0.501179 0.509826 0.518117 0.526187
          0.534179 0.54219 0.550235 0.558238 0.566067 0.573584 0.58071 0.587465 0.593965 0.600377 0.60684 0.613418
          0.620084 0.62677 0.633413 0.639978 0.646443 0.652784 0.658965 0.664963 0.670779 0.676433 0.681945 0.687312
          0.692525 0.697598 0.702587 0.70757 0.712575 0.717452 0.720952 0.711073 0.591114 0.215789 0.0249942 0.00187131
          0.000108341 4.08504e-06 9.19742e-08 0
        </DataArray>
        <DataArray type="Float32" Name="z[2]" NumberOfComponents="1" format="ascii">
          68.3593 68.3654 68.3715 68.3775 68.3836 68.3897 68.3957 68.4018 68.4078 68.4139 68.42 68.426
          68.4321 68.4382 68.4442 68.4503 68.4564 68.4624 68.4685 68.4746 68.4807 68.4867 68.4928 68.4989
          68.5049 68.511 68.5171 68.5232 68.5292 68.5353 68.5414 65.5157 65.4589 53.6005 46.3086 17.4936
          16.075 16.9521 17.8739 18.7949 19.7152 20.6313 21.5361 22.4201 23.2741 24.0906 24.865 25.5944
          26.2766 26.9093 27.4906 28.0217 28.5095 28.969 29.4226 29.8959 30.4102 30.9736 31.5752 32.1861
          32.7677 33.2861 33.7265 34.1019 34.4517 34.8295 35.2843 35.8411 36.4893 37.1856 37.8715 38.4953
          39.0281 39.4656 39.8186 40.1015 40.3292 40.5191 40.6937 40.8774 41.089 41.3366 41.6199 41.9369
          42.2882 42.6707 43.0665 43.44 43.7511 43.9722 44.0453 43.287 35.8827 13.0756 1.51235 0.113096
          0.00654325 0.000246925 5.6846e-06 0
        </DataArray>
        <DataArray type="Float32" Name="sat[0]" NumberOfComponents="1" format="ascii">
          0 0 0 0 0 0 0 0 0 0 0 0
          0 0 0 0 0 0 0 0 0 0 0 0
          0 0 0 0 0 0 0 0 0 1.38949e-05 0.175242 0.694186
          0.721077 0.707615 0.693592 0.67992 0.666637 0.653744 0.641205 0.628953 0.616915 0.605032 0.593273 0.581638
          0.570149 0.558834 0.547714 0.536803 0.526114 0.515668 0.505504 0.495669 0.486213 0.477157 0.468482 0.460117
          0.45196 0.443905 0.435882 0.427877 0.419934 0.412137 0.40457 0.39728 0.390257 0.383436 0.376726 0.370054
          0.363389 0.356745 0.350153 0.343638 0.337213 0.330886 0.324666 0.318567 0.312601 0.306767 0.301061 0.295481
          0.290035 0.284731 0.27956 0.2745 0.269529 0.264748 0.261356 0.271583 0.394448 0.778925 0.974392 0.998083
          0.999889 0.999996 1 1
        </DataArray>
        <DataArray type="Float32" Name="sat[1]" NumberOfComponents="1" format="ascii">
          0 0 0 0 0 0 0 2.96005e-18 0 0 0 0
          0 0 0 0 0 0 0 0 0 0 0 0
          0 0 3.02904e-17 0 0 0 0 0 0.402618 0.999986 0.824758 0.305814
          0.278923 0.292385 0.306408 0.32008 0.333363 0.346256 0.358795 0.371047 0.383085 0.394968 0.406727 0.418362
          0.429851 0.441166 0.452286 0.463197 0.473886 0.484332 0.494496 0.504331 0.513787 0.522843 0.531518 0.539883
          0.54804 0.556095 0.564118 0.572123 0.580066 0.587863 0.59543 0.60272 0.609743 0.616564 0.623274 0.629946
          0.636611 0.643255 0.649847 0.656362 0.662787 0.669114 0.675334 0.681433 0.687399 0.693233 0.698939 0.704519
          0.709965 0.715269 0.720439 0.7255 0.730471 0.735252 0.738644 0.728417 0.605552 0.221075 0.0256076 0.00191717
          0.000110992 4.18503e-06 9.4296e-08 0
        </DataArray>
        <DataArray type="Float32" Name="sat[2]" NumberOfComponents="1" format="ascii">
          1 1 1 1 1 1 1 1 1 1 1 1
          1 1 1 1 1 1 1 1 1 1 1 1
          1 1 1 1 1 1 1 1 0.597382 0 0 0
          0 0 0 0 0 0 0 0 0 0 0 0
          0 0 0 0 0 0 0 0 0 0 0 0
          0 0 0 0 0 0 0 0 0 0 0 0
          0 0 0 0 0 0 0 0 0 0 0 0
          0 0 0 0 0 0 0 0 0 0 0 0
          0 0 0 0
        </DataArray>
        <DataArray type="Float32" Name="massFrac[0]" NumberOfComponents="1" format="ascii">
          0 0 0 0 0 0 0 0 0 0 0 0
          0 0 0 0 0 0 0 0 0 0 0 0
          0 0 0 0 0 0 0 0 0 1.59732e-05 0.196202 0.722768
          0.748038 0.735379 0.722143 0.709185 0.696547 0.684233 0.672214 0.660433 0.648822 0.637329 0.625925 0.614612
          0.603412 0.592352 0.581455 0.570736 0.560207 0.54989 0.53982 0.530044 0.520609 0.511542 0.502826 0.4944
          0.486167 0.478028 0.469911 0.461802 0.45374 0.445803 0.438071 0.430595 0.423366 0.416326 0.40939 0.402488
          0.39559 0.388712 0.381882 0.375126 0.368456 0.361878 0.3554 0.349035 0.342795 0.336678 0.330682 0.324806
          0.319058 0.313448 0.307971 0.302603 0.297329 0.292254 0.288656 0.299527 0.427619 0.801629 0.9776 0.998328
          0.999903 0.999996 1 1
        </DataArray>
        <DataArray type="Float32" Name="massFrac[1]" NumberOfComponents="1" format="ascii">
          0 0 0 0 0 0 0 4.8809e-17 0 0 0 0
          0 0 0 0 0 0 0 0 0 0 0 0
          0 0 4.98604e-16 0 0 0 0 0 0.874006 0.954695 0.765639 0.26386
          0.239729 0.251697 0.264204 0.276432 0.288338 0.299922 0.311219 0.322294 0.33322 0.344058 0.354837 0.365559
          0.376203 0.386744 0.397161 0.407438 0.417555 0.427481 0.437161 0.446529 0.455521 0.464108 0.472316 0.480232
          0.487982 0.495692 0.50344 0.511228 0.518982 0.526583 0.533913 0.540906 0.547583 0.554039 0.560407 0.566795
          0.573251 0.579762 0.586289 0.592795 0.599258 0.605657 0.611964 0.618148 0.624186 0.63007 0.635807 0.641397
          0.646831 0.652105 0.657238 0.662283 0.667289 0.672168 0.675695 0.665487 0.54387 0.188507 0.021288 0.00158902
          9.19763e-05 3.46795e-06 7.80806e-08 0
        </DataArray>
        <DataArray type="Float32" Name="massFrac[2]" NumberOfComponents="1" format="ascii">
          1 1 1 1 1 1 1 1 1 1 1 1
          1 1 1 1 1 1 1 1 1 1 1 1
          1 1 1 1 1 1 1 1 0.125994 0.045289 0.0381594 0.0133718
          0.0122336 0.0129237 0.0136525 0.0143831 0.0151151 0.0158452 0.0165673 0.0172737 0.0179575 0.0186132 0.0192376 0.0198288
          0.020385 0.020904 0.0213843 0.0218269 0.0222378 0.0226292 0.0230191 0.0234274 0.0238696 0.02435 0.0248577 0.0253682
          0.0258507 0.0262805 0.026649 0.0269702 0.0272776 0.0276139 0.0280158 0.0284992 0.0290512 0.0296348 0.0302031 0.0307176
          0.0311588 0.0315261 0.0318288 0.0320783 0.0322859 0.0324659 0.0326363 0.0328162 0.0330194 0.0332513 0.033511 0.0337971
          0.0341103 0.0344471 0.0347914 0.0351135 0.0353821 0.0355773 0.0356496 0.034986 0.0285114 0.00986436 0.00111239 8.29354e-05
          4.79719e-06 1.81031e-07 4.16761e-09 0
        </DataArray>
        <DataArray type="Float32" Name="total fl. vol." NumberOfComponents="1" format="ascii">
          1 1 1 1 1 1 1 1 1 1 1 1
          1 1 1 1 1 1 1 1 1 1 1 1
          1 1 1 1 1 1 1 0.955771 0.99999 0.997471 0.996121 0.998615
          0.999371 0.999394 0.999342 0.999256 0.999165 0.999106 0.999111 0.999193 0.999343 0.999539 0.999751 0.999962
          1.00017 1.00036 1.00055 1.00071 1.00082 1.00082 1.0007 1.00045 1.00011 0.999768 0.999534 0.999487
          0.999646 0.999954 1.00029 1.00051 1.0005 1.00025 0.99981 0.99933 0.998973 0.998853 0.998987 0.999298
          0.999671 1.00001 1.00029 1.00049 1.00063 1.0007 1.00068 1.00058 1.00043 1.00027 1.00013 0.999997
          0.999864 0.999761 0.999743 0.99985 1.00006 1.00028 1.00042 1.00042 1.00028 1.00013 1.00002 1
          1 1 1 1
        </DataArray>
      </CellData>
      <Points>
        <DataArray type="Float32" Name="Coordinates" NumberOfComponents="3" format="ascii">
          0 0 0 1 0 0 0 1 0 1 1 0
          0 0 1 1 0 1 0 1 1 1 1 1
          0 0 2 1 0 2 0 1 2 1 1 2
          0 0 3 1 0 3 0 1 3 1 1 3
          0 0 4 1 0 4 0 1 4 1 1 4
          0 0 5 1 0 5 0 1 5 1 1 5
          0 0 6 1 0 6 0 1 6 1 1 6
          0 0 7 1 0 7 0 1 7 1 1 7
          0 0 8 1 0 8 0 1 8 1 1 8
          0 0 9 1 0 9 0 1 9 1 1 9
          0 0 10 1 0 10 0 1 10 1 1 10
          0 0 11 1 0 11 0 1 11 1 1 11
          0 0 12 1 0 12 0 1 12 1 1 12
          0 0 13 1 0 13 0 1 13 1 1 13
          0 0 14 1 0 14 0 1 14 1 1 14
          0 0 15 1 0 15 0 1 15 1 1 15
          0 0 16 1 0 16 0 1 16 1 1 16
          0 0 17 1 0 17 0 1 17 1 1 17
          0 0 18 1 0 18 0 1 18 1 1 18
          0 0 19 1 0 19 0 1 19 1 1 19
          0 0 20 1 0 20 0 1 20 1 1 20
          0 0 21 1 0 21 0 1 21 1 1 21
          0 0 22 1 0 22 0 1 22 1 1 22
          0 0 23 1 0 23 0 1 23 1 1 23
          0 0 24 1 0 24 0 1 24 1 1 24
          0 0 25 1 0 25 0 1 25 1 1 25
          0 0 26 1 0 26 0 1 26 1 1 26
          0 0 27 1 0 27 0 1 27 1 1 27
          0 0 28 1 0 28 0 1 28 1 1 28
          0 0 29 1 0 29 0 1 29 1 1 29
          0 0 30 1 0 30 0 1 30 1 1 30
          0 0 31 1 0 31 0 1 31 1 1 31
          0 0 32 1 0 32 0 1 32 1 1 32
          0 0 33 1 0 33 0 1 33 1 1 33
          0 0 34 1 0 34 0 1 34 1 1 34
          0 0 35 1 0 35 0 1 35 1 1 35
          0 0 36 1 0 36 0 1 36 1 1 36
          0 0 37 1 0 37 0 1 37 1 1 37
          0 0 38 1 0 38 0 1 38 1 1 38
          0 0 39 1 0 39 0 1 39 1 1 39
          0 0 40 1 0 40 0 1 40 1 1 40
          0 0 41 1 0 41 0 1 41 1 1 41
          0 0 42 1 0 42 0 1 42 1 1 42
          0 0 43 1 0 43 0 1 43 1 1 43
          0 0 44 1 0 44 0 1 44 1 1 44
          0 0 45 1 0 45 0 1 45 1 1 45
          0 0 46 1 0 46 0 1 46 1 1 46
          0 0 47 1 0 47 0 1 47 1 1 47
          0 0 48 1 0 48 0 1 48 1 1 48
          0 0 49 1 0 49 0 1 49 1 1 49
          0 0 50 1 0 50 0 1 50 1 1 50
          0 0 51 1 0 51 0 1 51 1 1 51
          0 0 52 1 0 52 0 1 52 1 1 52
          0 0 53 1 0 53 0 1 53 1 1 53
          0 0 54 1 0 54 0 1 54 1 1 54
          0 0 55 1 0 55 0 1 55 1 1 55
          0 0 56 1 0 56 0 1 56 1 1 56
          0 0 57 1 0 57 0 1 57 1 1 57
          0 0 58 1 0 58 0 1 58 1 1 58
          0 0 59 1 0 59 0 1 59 1 1 59
          0 0 60 1 0 60 0 1 60 1 1 60
          0 0 61 1 0 61 0 1 61 1 1 61
          0 0 62 1 0 62 0 1 62 1 1 62
          0 0 63 1 0 63 0 1 63 1 1 63
          0 0 64 1 0 64 0 1 64 1 1 64
          0 0 65 1 0 65 0 1 65 1 1 65
          0 0 66 1 0 66 0 1 66 1 1 66
          0 0 67 1 0 67 0 1 67 1 1 67
          0 0 68 1 0 68 0 1 68 1 1 68
          0 0 69 1 0 69 0 1 69 1 1 69
          0 0 70 1 0 70 0 1 70 1 1 70
          0 0 71 1 0 71 0 1 71 1 1 71
          0 0 72 1 0 72 0 1 72 1 1 72
          0 0 73 1 0 73 0 1 73 1 1 73
          0 0 74 1 0 74 0 1 74 1 1 74
          0 0 75 1 0 75 0 1 75 1 1 75
          0 0 76 1 0 76 0 1 76 1 1 76
          0 0 77 1 0 77 0 1 77 1 1 77
          0 0 78 1 0 78 0 1 78 1 1 78
          0 0 79 1 0 79 0 1 79 1 1 79
          0 0 80 1 0 80 0 1 80 1 1 80
          0 0 81 1 0 81 0 1 81 1 1 81
          0 0 82 1 0 82 0 1 82 1 1 82
          0 0 83 1 0 83 0 1 83 1 1 83
          0 0 84 1 0 84 0 1 84 1 1 84
          0 0 85 1 0 85 0 1 85 1 1 85
          0 0 86 1 0 86 0 1 86 1 1 86
          0 0 87 1 0 87 0 1 87 1 1 87
          0 0 88 1 0 88 0 1 88 1 1 88
          0 0 89 1 0 89 0 1 89 1 1 89
          0 0 90 1 0 90 0 1 90 1 1 90
          0 0 91 1 0 91 0 1 91 1 1 91
          0 0 92 1 0 92 0 1 92 1 1 92
          0 0 93 1 0 93 0 1 93 1 1 93
          0 0 94 1 0 94 0 1 94 1 1 94
          0 0 95 1 0 95 0 1 95 1 1 95
          0 0 96 1 0 96 0 1 96 1 1 96
          0 0 97 1 0 97 0 1 97 1 1 97
          0 0 98 1 0 98 0 1 98 1 1 98
          0 0 99 1 0 99 0 1 99 1 1 99
          0 0 100 1 0 100 0 1 100 1 1 100
        </DataArray>
      </Points>
      <Cells>
        <DataArray type="Int32" Name="connectivity" NumberOfComponents="1" format="ascii">
          0 1 3 2 4 5 7 6 4 5 7 6
          8 9 11 10 8 9 11 10 12 13 15 14
          12 13 15 14 16 17 19 18 16 17 19 18
          20 21 23 22 20 21 23 22 24 25 27 26
          24 25 27 26 28 29 31 30 28 29 31 30
          32 33 35 34 32 33 35 34 36 37 39 38
          36 37 39 38 40 41 43 42 40 41 43 42
          44 45 47 46 44 45 47 46 48 49 51 50
          48 49 51 50 52 53 55 54 52 53 55 54
          56 57 59 58 56 57 59 58 60 61 63 62
          60 61 63 62 64 65 67 66 64 65 67 66
          68 69 71 70 68 69 71 70 72 73 75 74
          72 73 75 74 76 77 79 78 76 77 79 78
          80 81 83 82 80 81 83 82 84 85 87 86
          84 85 87 86 88 89 91 90 88 89 91 90
          92 93 95 94 92 93 95 94 96 97 99 98
          96 97 99 98 100 101 103 102 100 101 103 102
          104 105 107 106 104 105 107 106 108 109 111 110
          108 109 111 110 112 113 115 114 112 113 115 114
          116 117 119 118 116 117 119 118 120 121 123 122
          120 121 123 122 124 125 127 126 124 125 127 126
          128 129 131 130 128 129 131 130 132 133 135 134
          132 133 135 134 136 137 139 138 136 137 139 138
          140 141 143 142 140 141 143 142 144 145 147 146
          144 145 147 146 148 149 151 150 148 149 151 150
          152 153 155 154 152 153 155 154 156 157 159 158
          156 157 159 158 160 161 163 162 160 161 163 162
          164 165 167 166 164 165 167 166 168 169 171 170
          168 169 171 170 172 173 175 174 172 173 175 174
          176 177 179 178 176 177 179 178 180 181 183 182
          180 181 183 182 184 185 187 186 184 185 187 186
          188 189 191 190 188 189 191 190 192 193 195 194
          192 193 195 194 196 197 199 198 196 197 199 198
          200 201 203 202 200 201 203 202 204 205 207 206
          204 205 207 206 208 209 211 210 208 209 211 210
          212 213 215 214 212 213 215 214 216 217 219 218
          216 217 219 218 220 221 223 222 220 221 223 222
          224 225 227 226 224 225 227 226 228 229 231 230
          228 229 231 230 232 233 235 234 232 233 235 234
          236 237 239 238 236 237 239 238 240 241 243 242
          240 241 243 242 244 245 247 246 244 245 247 246
          248 249 251 250 248 249 251 250 252 253 255 254
          252 253 255 254 256 257 259 258 256 257 259 258
          260 261 263 262 260 261 263 262 264 265 267 266
          264 265 267 266 268 269 271 270 268 269 271 270
          272 273 275 274 272 273 275 274 276 277 279 278
          276 277 279 278 280 281 283 282 280 281 283 282
          284 285 287 286 284 285 287 286 288 289 291 290
          288 289 291 290 292 293 295 294 292 293 295 294
          296 297 299 298 296 297 299 298 300 301 303 302
          300 301 303 302 304 305 307 306 304 305 307 306
          308 309 311 310 308 309 311 310 312 313 315 314
          312 313 315 314 316 317 319 318 316 317 319 318
          320 321 323 322 320 321 323 322 324 325 327 326
          324 325 327 326 328 329 331 330 328 329 331 330
          332 333 335 334 332 333 335 334 336 337 339 338
          336 337 339 338 340 341 343 342 340 341 343 342
          344 345 347 346 344 345 347 346 348 349 351 350
          348 349 351 350 352 353 355 354 352 353 355 354
          356 357 359 358 356 357 359 358 360 361 363 362
          360 361 363 362 364 365 367 366 364 365 367 366
          368 369 371 370 368 369 371 370 372 373 375 374
          372 373 375 374 376 377 379 378 376 377 379 378
          380 381 383 382 380 381 383 382 384 385 387 386
          384 385 387 386 388 389 391 390 388 389 391 390
          392 393 395 394 392 393 395 394 396 397 399 398
          396 397 399 398 400 401 403 402
        </DataArray>
        <DataArray type="Int32" Name="offsets" NumberOfComponents="1" format="ascii">
          8 16 24 32 40 48 56 64 72 80 88 96
          104 112 120 128 136 144 152 160 168 176 184 192
          200 208 216 224 232 240 248 256 264 272 280 288
          296 304 312 320 328 336 344 352 360 368 376 384
          392 400 408 416 424 432 440 448 456 464 472 480
          488 496 504 512 520 528 536 544 552 560 568 576
          584 592 600 608 616 624 632 640 648 656 664 672
          680 688 696 704 712 720 728 736 744 752 760 768
          776 784 792 800
        </DataArray>
        <DataArray type="UInt8" Name="types" NumberOfComponents="1" format="ascii">
          12 12 12 12 12 12 12 12 12 12 12 12
          12 12 12 12 12 12 12 12 12 12 12 12
          12 12 12 12 12 12 12 12 12 12 12 12
          12 12 12 12 12 12 12 12 12 12 12 12
          12 12 12 12 12 12 12 12 12 12 12 12
          12 12 12 12 12 12 12 12 12 12 12 12
          12 12 12 12 12 12 12 12 12 12 12 12
          12 12 12 12 12 12 12 12 12 12 12 12
          12 12 12 12
        </DataArray>
      </Cells>
    </Piece>
  </UnstructuredGrid>
</VTKFile>
