<?xml version="1.0"?>
<VTKFile type="UnstructuredGrid" version="0.1" byte_order="LittleEndian">
  <UnstructuredGrid>
    <Piece NumberOfCells="100" NumberOfPoints="404">
      <CellData Scalars="pressure[0]">
        <DataArray type="Float32" Name="pressure[0]" NumberOfComponents="1" format="ascii">
          5.76755e+06 5.76806e+06 5.76857e+06 5.76908e+06 5.76959e+06 5.7701e+06 5.77061e+06 5.77112e+06 5.77164e+06 5.77215e+06 5.77266e+06 5.77317e+06
          5.77368e+06 5.77419e+06 5.7747e+06 5.77521e+06 5.77572e+06 5.77623e+06 5.77674e+06 5.77725e+06 5.77776e+06 5.77827e+06 5.77879e+06 5.7793e+06
          5.77981e+06 5.78032e+06 5.78083e+06 5.78134e+06 5.78185e+06 5.78236e+06 5.78288e+06 5.78339e+06 5.78396e+06 5.79283e+06 5.80169e+06 5.81055e+06
          5.81942e+06 5.82829e+06 5.83716e+06 5.84603e+06 5.8549e+06 5.86377e+06 5.87264e+06 5.88151e+06 5.89038e+06 5.89926e+06 5.9084e+06 5.91808e+06
          5.92785e+06 5.93763e+06 5.9474e+06 5.95716e+06 5.96691e+06 5.97666e+06 5.9864e+06 5.99614e+06 6.00587e+06 6.01559e+06 6.02531e+06 6.03502e+06
          6.04473e+06 6.05443e+06 6.06412e+06 6.0738e+06 6.08348e+06 6.09316e+06 6.10282e+06 6.11248e+06 6.12213e+06 6.13178e+06 6.14142e+06 6.15106e+06
          6.16068e+06 6.17031e+06 6.17992e+06 6.18953e+06 6.19914e+06 6.20873e+06 6.21833e+06 6.22795e+06 6.23768e+06 6.24766e+06 6.25778e+06 6.26796e+06
          6.27813e+06 6.28831e+06 6.29849e+06 6.30867e+06 6.31885e+06 6.32903e+06 6.33921e+06 6.34939e+06 6.35957e+06 6.36975e+06 6.37993e+06 6.3901e+06
          6.40028e+06 6.41046e+06 6.42064e+06 6.43082e+06
        </DataArray>
        <DataArray type="Float32" Name="pressure[1]" NumberOfComponents="1" format="ascii">
          5.76755e+06 5.76806e+06 5.76857e+06 5.76908e+06 5.76959e+06 5.7701e+06 5.77061e+06 5.77112e+06 5.77164e+06 5.77215e+06 5.77266e+06 5.77317e+06
          5.77368e+06 5.77419e+06 5.7747e+06 5.77521e+06 5.77572e+06 5.77623e+06 5.77674e+06 5.77725e+06 5.77776e+06 5.77827e+06 5.77879e+06 5.7793e+06
          5.77981e+06 5.78032e+06 5.78083e+06 5.78134e+06 5.78185e+06 5.78236e+06 5.78288e+06 5.78339e+06 5.78396e+06 5.79283e+06 5.80169e+06 5.81055e+06
          5.81942e+06 5.82829e+06 5.83716e+06 5.84603e+06 5.8549e+06 5.86377e+06 5.87264e+06 5.88151e+06 5.89038e+06 5.89926e+06 5.9084e+06 5.91808e+06
          5.92785e+06 5.93763e+06 5.9474e+06 5.95716e+06 5.96691e+06 5.97666e+06 5.9864e+06 5.99614e+06 6.00587e+06 6.01559e+06 6.02531e+06 6.03502e+06
          6.04473e+06 6.05443e+06 6.06412e+06 6.0738e+06 6.08348e+06 6.09316e+06 6.10282e+06 6.11248e+06 6.12213e+06 6.13178e+06 6.14142e+06 6.15106e+06
          6.16068e+06 6.17031e+06 6.17992e+06 6.18953e+06 6.19914e+06 6.20873e+06 6.21833e+06 6.22795e+06 6.23768e+06 6.24766e+06 6.25778e+06 6.26796e+06
          6.27813e+06 6.28831e+06 6.29849e+06 6.30867e+06 6.31885e+06 6.32903e+06 6.33921e+06 6.34939e+06 6.35957e+06 6.36975e+06 6.37993e+06 6.3901e+06
          6.40028e+06 6.41046e+06 6.42064e+06 6.43082e+06
        </DataArray>
        <DataArray type="Float32" Name="pressure[2]" NumberOfComponents="1" format="ascii">
          5.76755e+06 5.76806e+06 5.76857e+06 5.76908e+06 5.76959e+06 5.7701e+06 5.77061e+06 5.77112e+06 5.77164e+06 5.77215e+06 5.77266e+06 5.77317e+06
          5.77368e+06 5.77419e+06 5.7747e+06 5.77521e+06 5.77572e+06 5.77623e+06 5.77674e+06 5.77725e+06 5.77776e+06 5.77827e+06 5.77879e+06 5.7793e+06
          5.77981e+06 5.78032e+06 5.78083e+06 5.78134e+06 5.78185e+06 5.78236e+06 5.78288e+06 5.78339e+06 5.78396e+06 5.79283e+06 5.80169e+06 5.81055e+06
          5.81942e+06 5.82829e+06 5.83716e+06 5.84603e+06 5.8549e+06 5.86377e+06 5.87264e+06 5.88151e+06 5.89038e+06 5.89926e+06 5.9084e+06 5.91808e+06
          5.92785e+06 5.93763e+06 5.9474e+06 5.95716e+06 5.96691e+06 5.97666e+06 5.9864e+06 5.99614e+06 6.00587e+06 6.01559e+06 6.02531e+06 6.03502e+06
          6.04473e+06 6.05443e+06 6.06412e+06 6.0738e+06 6.08348e+06 6.09316e+06 6.10282e+06 6.11248e+06 6.12213e+06 6.13178e+06 6.14142e+06 6.15106e+06
          6.16068e+06 6.17031e+06 6.17992e+06 6.18953e+06 6.19914e+06 6.20873e+06 6.21833e+06 6.22795e+06 6.23768e+06 6.24766e+06 6.25778e+06 6.26796e+06
          6.27813e+06 6.28831e+06 6.29849e+06 6.30867e+06 6.31885e+06 6.32903e+06 6.33921e+06 6.34939e+06 6.35957e+06 6.36975e+06 6.37993e+06 6.3901e+06
          6.40028e+06 6.41046e+06 6.42064e+06 6.43082e+06
        </DataArray>
        <DataArray type="Float32" Name="velocity[0]" NumberOfComponents="1" format="ascii">
          0 0 0 0 0 0 0 0 0 0 0 0
          0 0 0 0 0 0 0 0 0 0 0 0
          0 0 0 0 0 0 0 0 0 0 0 0
          0 0 0 0 0 0 0 0 0 0 0 0
          0 0 0 0 0 0 0 0 0 0 0 0
          0 0 0 0 0 0 0 0 0 0 0 0
          0 0 0 0 0 0 0 0 0 0 0 0
          0 0 0 0 0 0 0 0 0 0 0 0
          0 0 0 0
        </DataArray>
        <DataArray type="Float32" Name="velocity[1]" NumberOfComponents="1" format="ascii">
          0 0 0 0 0 0 0 0 0 0 0 0
          0 0 0 0 0 0 0 0 0 0 0 0
          0 0 0 0 0 0 0 0 0 0 0 0
          0 0 0 0 0 0 0 0 0 0 0 0
          0 0 0 0 0 0 0 0 0 0 0 0
          0 0 0 0 0 0 0 0 0 0 0 0
          0 0 0 0 0 0 0 0 0 0 0 0
          0 0 0 0 0 0 0 0 0 0 0 0
          0 0 0 0
        </DataArray>
        <DataArray type="Float32" Name="velocity[2]" NumberOfComponents="1" format="ascii">
          -2.9054e-13 -8.7159e-13 -1.45258e-12 -2.03352e-12 -2.61441e-12 -3.19525e-12 -3.77602e-12 -4.35675e-12 -4.93742e-12 -5.51805e-12 -6.09861e-12 -6.67912e-12
          -7.25957e-12 -7.83998e-12 -8.42034e-12 -9.00063e-12 -9.58088e-12 -1.01611e-11 -1.07412e-11 -1.13213e-11 -1.19013e-11 -1.24813e-11 -1.30612e-11 -1.3641e-11
          -1.42208e-11 -1.48005e-11 -1.53802e-11 -1.59598e-11 -1.65393e-11 -1.71189e-11 -1.76983e-11 -1.71438e-11 -1.76124e-11 -1.88699e-11 -1.88404e-11 -1.88834e-11
          -1.89149e-11 -1.89395e-11 -1.89548e-11 -1.89605e-11 -1.89598e-11 -1.8957e-11 -1.89555e-11 -1.89558e-11 -1.91601e-11 -2.03543e-11 -2.17788e-11 -2.00816e-11
          -1.53557e-11 -9.99547e-12 -4.31355e-12 1.28735e-12 5.97224e-12 8.89973e-12 9.44811e-12 7.35523e-12 2.77365e-12 -3.76385e-12 -1.14534e-11 -1.93712e-11
          -2.66279e-11 -3.24936e-11 -3.64748e-11 -3.83413e-11 -3.81123e-11 -3.60174e-11 -3.2445e-11 -2.78874e-11 -2.28865e-11 -1.79806e-11 -1.36525e-11 -1.0279e-11
          -8.08285e-12 -7.09612e-12 -7.14113e-12 -7.84434e-12 -8.6925e-12 -9.13431e-12 -8.7189e-12 -7.18942e-12 -4.75182e-12 -2.37089e-12 -8.53153e-13 -2.04908e-13
          -4.06209e-14 -7.03681e-15 -8.1627e-16 1.32828e-16 -3.50157e-18 -2.00926e-16 -1.17304e-16 -6.30478e-18 -6.14981e-18 -6.13529e-18 -6.21286e-18 -6.24172e-18
          -6.50294e-18 -6.42537e-18 -6.24154e-18 -3.09917e-18
        </DataArray>
        <DataArray type="Float32" Name="z[0]" NumberOfComponents="1" format="ascii">
          0 0 0 0 0 0 0 0 0 0 0 0
          0 0 0 0 0 0 0 0 0 0 0 0
          0 0 0 0 0 0 0 0 0 0 0 0
          0 0 0 0 0 0 0 4.21621e-08 5.25175e-06 0.000538318 0.0384174 0.322761
          0.48098 0.493407 0.488891 0.483142 0.477406 0.471778 0.466261 0.46084 0.455499 0.45022 0.444984 0.439777
          0.434591 0.429422 0.424272 0.419148 0.41406 0.409017 0.404031 0.39911 0.394261 0.389489 0.384796 0.38018
          0.375638 0.371164 0.366755 0.362421 0.358261 0.354884 0.355881 0.381159 0.508305 0.775203 0.945285 0.989797
          0.998278 0.99973 0.999961 0.999995 0.999999 1 1 1 1 1 1 1
          1 1 1 1
        </DataArray>
        <DataArray type="Float32" Name="z[1]" NumberOfComponents="1" format="ascii">
          0 0 0 0 0 0 0 2.88322e-18 0 0 0 0
          0 0 0 0 0 0 0 0 0 0 0 0
          0 0 2.95029e-17 0 0 0 0 0 0.388262 0.978218 0.976576 0.975659
          0.974943 0.974373 0.974102 0.974126 0.97434 0.974608 0.974816 0.974919 0.974938 0.974395 0.937431 0.66018
          0.505899 0.49373 0.498055 0.503571 0.509073 0.514481 0.519808 0.525076 0.530305 0.535514 0.540714 0.545909
          0.551096 0.556265 0.561405 0.5665 0.571536 0.5765 0.581384 0.586182 0.590893 0.595518 0.600064 0.60454
          0.608955 0.61332 0.617638 0.621899 0.625999 0.629336 0.628397 0.603755 0.479716 0.219331 0.0533885 0.00995666
          0.00168034 0.000263383 3.83754e-05 5.17425e-06 6.38709e-07 6.7933e-08 0 0 0 0 0 0
          0 0 0 0
        </DataArray>
        <DataArray type="Float32" Name="z[2]" NumberOfComponents="1" format="ascii">
          68.3488 68.3548 68.3609 68.367 68.373 68.3791 68.3851 68.3912 68.3973 68.4033 68.4094 68.4155
          68.4215 68.4276 68.4337 68.4397 68.4458 68.4519 68.4579 68.464 68.4701 68.4761 68.4822 68.4883
          68.4944 68.5004 68.5065 68.5126 68.5186 68.5247 68.5308 65.5368 65.479 53.8262 56.5407 58.0722
          59.3252 60.3286 60.8206 60.8053 60.4625 60.0274 59.6954 59.5425 59.5242 59.5222 57.2972 40.376
          30.9636 30.2499 30.559 30.9563 31.3674 31.7838 32.2005 32.6111 33.0089 33.3875 33.7417 34.0686
          34.3676 34.6404 34.891 35.1245 35.347 35.5648 35.7833 36.0072 36.2396 36.4821 36.7343 36.9943
          37.259 37.5241 37.7853 38.0381 38.2741 38.4566 38.3739 36.8451 29.2597 13.3722 3.25371 0.606531
          0.10231 0.0160278 0.0023343 0.000315033 4.14942e-05 2.76909e-06 0 0 0 0 0 0
          0 0 0 0
        </DataArray>
        <DataArray type="Float32" Name="sat[0]" NumberOfComponents="1" format="ascii">
          0 0 0 0 0 0 0 0 0 0 0 0
          0 0 0 0 0 0 0 0 0 0 0 0
          0 0 0 0 0 0 0 0 0 0 0 0
          0 0 0 0 0 0 0 4.21621e-08 5.25175e-06 0.000538329 0.0384193 0.322788
          0.481032 0.493482 0.488996 0.483277 0.477567 0.471956 0.466441 0.461007 0.455638 0.450317 0.445031 0.439772
          0.434537 0.429326 0.424146 0.419004 0.41391 0.408874 0.403903 0.399003 0.394179 0.389433 0.384762 0.380163
          0.375632 0.371162 0.36675 0.362409 0.35824 0.354855 0.355848 0.381127 0.508276 0.77518 0.945276 0.989794
          0.998278 0.99973 0.999961 0.999995 0.999999 1 1 1 1 1 1 1
          1 1 1 1
        </DataArray>
        <DataArray type="Float32" Name="sat[1]" NumberOfComponents="1" format="ascii">
          0 0 0 0 0 0 0 2.96004e-18 0 0 0 0
          0 0 0 0 0 0 0 0 0 0 0 0
          0 0 3.02903e-17 0 0 0 0 0 0.398636 1 1 1
          1 1 1 1 1 1 1 1 0.999995 0.999462 0.961581 0.677212
          0.518968 0.506518 0.511004 0.516723 0.522433 0.528044 0.533559 0.538993 0.544362 0.549683 0.554969 0.560228
          0.565463 0.570674 0.575854 0.580996 0.58609 0.591126 0.596097 0.600997 0.605821 0.610567 0.615238 0.619837
          0.624368 0.628838 0.63325 0.637591 0.64176 0.645145 0.644152 0.618873 0.491724 0.22482 0.0547242 0.0102055
          0.00172228 0.000269948 3.93307e-05 5.30314e-06 6.56111e-07 6.88112e-08 0 0 0 0 0 0
          0 0 0 0
        </DataArray>
        <DataArray type="Float32" Name="sat[2]" NumberOfComponents="1" format="ascii">
          1 1 1 1 1 1 1 1 1 1 1 1
          1 1 1 1 1 1 1 1 1 1 1 1
          1 1 1 1 1 1 1 1 0.601364 0 0 0
          0 0 0 0 0 0 0 0 0 0 0 0
          0 0 0 0 0 0 0 0 0 0 0 0
          0 0 0 0 0 0 0 0 0 0 0 0
          0 0 0 0 0 0 0 0 0 0 0 0
          0 0 0 0 -9.04791e-23 0 0 0 0 0 0 0
          0 0 0 0
        </DataArray>
        <DataArray type="Float32" Name="massFrac[0]" NumberOfComponents="1" format="ascii">
          0 0 0 0 0 0 0 0 0 0 0 0
          0 0 0 0 0 0 0 0 0 0 0 0
          0 0 0 0 0 0 0 0 0 0 0 0
          0 0 0 0 0 0 0 4.83898e-08 6.02743e-06 0.000617776 0.0438431 0.353588
          0.515432 0.527859 0.523374 0.517649 0.511922 0.506285 0.500734 0.495257 0.489839 0.484463 0.479119 0.473797
          0.468494 0.463211 0.457954 0.45273 0.447548 0.442417 0.437345 0.432338 0.427401 0.422533 0.417736 0.413006
          0.408337 0.403726 0.39917 0.394681 0.390366 0.386859 0.387887 0.413978 0.542477 0.798186 0.951954 0.991091
          0.998498 0.999765 0.999966 0.999995 0.999999 1 1 1 1 1 1 1
          1 1 1 1
        </DataArray>
        <DataArray type="Float32" Name="massFrac[1]" NumberOfComponents="1" format="ascii">
          0 0 0 0 0 0 0 4.88166e-17 0 0 0 0
          0 0 0 0 0 0 0 0 0 0 0 0
          0 0 4.98682e-16 0 0 0 0 0 0.872873 0.954637 0.952381 0.951111
          0.950074 0.949244 0.948838 0.948851 0.949136 0.949496 0.949772 0.949899 0.949909 0.949303 0.908217 0.613983
          0.460241 0.448415 0.452642 0.458035 0.463418 0.468709 0.473913 0.479049 0.484137 0.489197 0.494246 0.499294
          0.504345 0.509394 0.514435 0.519455 0.524441 0.529379 0.534257 0.539065 0.543797 0.548451 0.553027 0.557531
          0.561969 0.56635 0.57068 0.574949 0.579059 0.582407 0.58145 0.556684 0.434629 0.191719 0.0456434 0.00846366
          0.00142682 0.000223604 3.25786e-05 4.39264e-06 5.42226e-07 5.76711e-08 0 0 0 0 0 0
          0 0 0 0
        </DataArray>
        <DataArray type="Float32" Name="massFrac[2]" NumberOfComponents="1" format="ascii">
          1 1 1 1 1 1 1 1 1 1 1 1
          1 1 1 1 1 1 1 1 1 1 1 1
          1 1 1 1 1 1 1 1 0.127127 0.0453634 0.0476185 0.0488891
          0.0499261 0.0507558 0.0511621 0.0511487 0.0508644 0.0505037 0.0502282 0.0501009 0.0500851 0.0500793 0.0479396 0.0324286
          0.0243267 0.023726 0.0239843 0.0243163 0.0246594 0.0250063 0.0253529 0.0256941 0.0260246 0.0263395 0.026635 0.0269092
          0.0271618 0.0273946 0.0276107 0.0278144 0.0280102 0.0282031 0.0283973 0.0285962 0.028802 0.0290157 0.0292369 0.0294638
          0.0296939 0.0299239 0.0301503 0.0303696 0.0305748 0.0307344 0.0306636 0.0293385 0.0228936 0.0100944 0.00240226 0.000445254
          7.50241e-05 1.1751e-05 1.71138e-06 2.30964e-07 3.04211e-08 2.03013e-09 0 0 0 0 0 0
          0 0 0 0
        </DataArray>
        <DataArray type="Float32" Name="total fl. vol." NumberOfComponents="1" format="ascii">
          1 1 1 1 1 1 1 1 1 1 1 1
          1 1 1 1 1 1 1 1 1 1 1 1
          1 1 1 1 1 1 1 0.956226 0.999982 1.00001 0.999997 0.999998
          0.999999 0.999999 1 1 1 1 1 1 0.999999 0.999979 0.999949 0.999918
          0.999894 0.999848 0.999786 0.999721 0.999662 0.999623 0.999613 0.999637 0.999696 0.999785 0.999894 1.00001
          1.00012 1.00022 1.0003 1.00034 1.00036 1.00035 1.00032 1.00027 1.00021 1.00014 1.00009 1.00004
          1.00002 1.00001 1.00001 1.00003 1.00006 1.00008 1.00009 1.00008 1.00006 1.00003 1.00001 1
          1 1 1 1 1 1 1 1 1 1 1 1
          1 1 1 1
        </DataArray>
      </CellData>
      <Points>
        <DataArray type="Float32" Name="Coordinates" NumberOfComponents="3" format="ascii">
          0 0 0 1 0 0 0 1 0 1 1 0
          0 0 1 1 0 1 0 1 1 1 1 1
          0 0 2 1 0 2 0 1 2 1 1 2
          0 0 3 1 0 3 0 1 3 1 1 3
          0 0 4 1 0 4 0 1 4 1 1 4
          0 0 5 1 0 5 0 1 5 1 1 5
          0 0 6 1 0 6 0 1 6 1 1 6
          0 0 7 1 0 7 0 1 7 1 1 7
          0 0 8 1 0 8 0 1 8 1 1 8
          0 0 9 1 0 9 0 1 9 1 1 9
          0 0 10 1 0 10 0 1 10 1 1 10
          0 0 11 1 0 11 0 1 11 1 1 11
          0 0 12 1 0 12 0 1 12 1 1 12
          0 0 13 1 0 13 0 1 13 1 1 13
          0 0 14 1 0 14 0 1 14 1 1 14
          0 0 15 1 0 15 0 1 15 1 1 15
          0 0 16 1 0 16 0 1 16 1 1 16
          0 0 17 1 0 17 0 1 17 1 1 17
          0 0 18 1 0 18 0 1 18 1 1 18
          0 0 19 1 0 19 0 1 19 1 1 19
          0 0 20 1 0 20 0 1 20 1 1 20
          0 0 21 1 0 21 0 1 21 1 1 21
          0 0 22 1 0 22 0 1 22 1 1 22
          0 0 23 1 0 23 0 1 23 1 1 23
          0 0 24 1 0 24 0 1 24 1 1 24
          0 0 25 1 0 25 0 1 25 1 1 25
          0 0 26 1 0 26 0 1 26 1 1 26
          0 0 27 1 0 27 0 1 27 1 1 27
          0 0 28 1 0 28 0 1 28 1 1 28
          0 0 29 1 0 29 0 1 29 1 1 29
          0 0 30 1 0 30 0 1 30 1 1 30
          0 0 31 1 0 31 0 1 31 1 1 31
          0 0 32 1 0 32 0 1 32 1 1 32
          0 0 33 1 0 33 0 1 33 1 1 33
          0 0 34 1 0 34 0 1 34 1 1 34
          0 0 35 1 0 35 0 1 35 1 1 35
          0 0 36 1 0 36 0 1 36 1 1 36
          0 0 37 1 0 37 0 1 37 1 1 37
          0 0 38 1 0 38 0 1 38 1 1 38
          0 0 39 1 0 39 0 1 39 1 1 39
          0 0 40 1 0 40 0 1 40 1 1 40
          0 0 41 1 0 41 0 1 41 1 1 41
          0 0 42 1 0 42 0 1 42 1 1 42
          0 0 43 1 0 43 0 1 43 1 1 43
          0 0 44 1 0 44 0 1 44 1 1 44
          0 0 45 1 0 45 0 1 45 1 1 45
          0 0 46 1 0 46 0 1 46 1 1 46
          0 0 47 1 0 47 0 1 47 1 1 47
          0 0 48 1 0 48 0 1 48 1 1 48
          0 0 49 1 0 49 0 1 49 1 1 49
          0 0 50 1 0 50 0 1 50 1 1 50
          0 0 51 1 0 51 0 1 51 1 1 51
          0 0 52 1 0 52 0 1 52 1 1 52
          0 0 53 1 0 53 0 1 53 1 1 53
          0 0 54 1 0 54 0 1 54 1 1 54
          0 0 55 1 0 55 0 1 55 1 1 55
          0 0 56 1 0 56 0 1 56 1 1 56
          0 0 57 1 0 57 0 1 57 1 1 57
          0 0 58 1 0 58 0 1 58 1 1 58
          0 0 59 1 0 59 0 1 59 1 1 59
          0 0 60 1 0 60 0 1 60 1 1 60
          0 0 61 1 0 61 0 1 61 1 1 61
          0 0 62 1 0 62 0 1 62 1 1 62
          0 0 63 1 0 63 0 1 63 1 1 63
          0 0 64 1 0 64 0 1 64 1 1 64
          0 0 65 1 0 65 0 1 65 1 1 65
          0 0 66 1 0 66 0 1 66 1 1 66
          0 0 67 1 0 67 0 1 67 1 1 67
          0 0 68 1 0 68 0 1 68 1 1 68
          0 0 69 1 0 69 0 1 69 1 1 69
          0 0 70 1 0 70 0 1 70 1 1 70
          0 0 71 1 0 71 0 1 71 1 1 71
          0 0 72 1 0 72 0 1 72 1 1 72
          0 0 73 1 0 73 0 1 73 1 1 73
          0 0 74 1 0 74 0 1 74 1 1 74
          0 0 75 1 0 75 0 1 75 1 1 75
          0 0 76 1 0 76 0 1 76 1 1 76
          0 0 77 1 0 77 0 1 77 1 1 77
          0 0 78 1 0 78 0 1 78 1 1 78
          0 0 79 1 0 79 0 1 79 1 1 79
          0 0 80 1 0 80 0 1 80 1 1 80
          0 0 81 1 0 81 0 1 81 1 1 81
          0 0 82 1 0 82 0 1 82 1 1 82
          0 0 83 1 0 83 0 1 83 1 1 83
          0 0 84 1 0 84 0 1 84 1 1 84
          0 0 85 1 0 85 0 1 85 1 1 85
          0 0 86 1 0 86 0 1 86 1 1 86
          0 0 87 1 0 87 0 1 87 1 1 87
          0 0 88 1 0 88 0 1 88 1 1 88
          0 0 89 1 0 89 0 1 89 1 1 89
          0 0 90 1 0 90 0 1 90 1 1 90
          0 0 91 1 0 91 0 1 91 1 1 91
          0 0 92 1 0 92 0 1 92 1 1 92
          0 0 93 1 0 93 0 1 93 1 1 93
          0 0 94 1 0 94 0 1 94 1 1 94
          0 0 95 1 0 95 0 1 95 1 1 95
          0 0 96 1 0 96 0 1 96 1 1 96
          0 0 97 1 0 97 0 1 97 1 1 97
          0 0 98 1 0 98 0 1 98 1 1 98
          0 0 99 1 0 99 0 1 99 1 1 99
          0 0 100 1 0 100 0 1 100 1 1 100
        </DataArray>
      </Points>
      <Cells>
        <DataArray type="Int32" Name="connectivity" NumberOfComponents="1" format="ascii">
          0 1 3 2 4 5 7 6 4 5 7 6
          8 9 11 10 8 9 11 10 12 13 15 14
          12 13 15 14 16 17 19 18 16 17 19 18
          20 21 23 22 20 21 23 22 24 25 27 26
          24 25 27 26 28 29 31 30 28 29 31 30
          32 33 35 34 32 33 35 34 36 37 39 38
          36 37 39 38 40 41 43 42 40 41 43 42
          44 45 47 46 44 45 47 46 48 49 51 50
          48 49 51 50 52 53 55 54 52 53 55 54
          56 57 59 58 56 57 59 58 60 61 63 62
          60 61 63 62 64 65 67 66 64 65 67 66
          68 69 71 70 68 69 71 70 72 73 75 74
          72 73 75 74 76 77 79 78 76 77 79 78
          80 81 83 82 80 81 83 82 84 85 87 86
          84 85 87 86 88 89 91 90 88 89 91 90
          92 93 95 94 92 93 95 94 96 97 99 98
          96 97 99 98 100 101 103 102 100 101 103 102
          104 105 107 106 104 105 107 106 108 109 111 110
          108 109 111 110 112 113 115 114 112 113 115 114
          116 117 119 118 116 117 119 118 120 121 123 122
          120 121 123 122 124 125 127 126 124 125 127 126
          128 129 131 130 128 129 131 130 132 133 135 134
          132 133 135 134 136 137 139 138 136 137 139 138
          140 141 143 142 140 141 143 142 144 145 147 146
          144 145 147 146 148 149 151 150 148 149 151 150
          152 153 155 154 152 153 155 154 156 157 159 158
          156 157 159 158 160 161 163 162 160 161 163 162
          164 165 167 166 164 165 167 166 168 169 171 170
          168 169 171 170 172 173 175 174 172 173 175 174
          176 177 179 178 176 177 179 178 180 181 183 182
          180 181 183 182 184 185 187 186 184 185 187 186
          188 189 191 190 188 189 191 190 192 193 195 194
          192 193 195 194 196 197 199 198 196 197 199 198
          200 201 203 202 200 201 203 202 204 205 207 206
          204 205 207 206 208 209 211 210 208 209 211 210
          212 213 215 214 212 213 215 214 216 217 219 218
          216 217 219 218 220 221 223 222 220 221 223 222
          224 225 227 226 224 225 227 226 228 229 231 230
          228 229 231 230 232 233 235 234 232 233 235 234
          236 237 239 238 236 237 239 238 240 241 243 242
          240 241 243 242 244 245 247 246 244 245 247 246
          248 249 251 250 248 249 251 250 252 253 255 254
          252 253 255 254 256 257 259 258 256 257 259 258
          260 261 263 262 260 261 263 262 264 265 267 266
          264 265 267 266 268 269 271 270 268 269 271 270
          272 273 275 274 272 273 275 274 276 277 279 278
          276 277 279 278 280 281 283 282 280 281 283 282
          284 285 287 286 284 285 287 286 288 289 291 290
          288 289 291 290 292 293 295 294 292 293 295 294
          296 297 299 298 296 297 299 298 300 301 303 302
          300 301 303 302 304 305 307 306 304 305 307 306
          308 309 311 310 308 309 311 310 312 313 315 314
          312 313 315 314 316 317 319 318 316 317 319 318
          320 321 323 322 320 321 323 322 324 325 327 326
          324 325 327 326 328 329 331 330 328 329 331 330
          332 333 335 334 332 333 335 334 336 337 339 338
          336 337 339 338 340 341 343 342 340 341 343 342
          344 345 347 346 344 345 347 346 348 349 351 350
          348 349 351 350 352 353 355 354 352 353 355 354
          356 357 359 358 356 357 359 358 360 361 363 362
          360 361 363 362 364 365 367 366 364 365 367 366
          368 369 371 370 368 369 371 370 372 373 375 374
          372 373 375 374 376 377 379 378 376 377 379 378
          380 381 383 382 380 381 383 382 384 385 387 386
          384 385 387 386 388 389 391 390 388 389 391 390
          392 393 395 394 392 393 395 394 396 397 399 398
          396 397 399 398 400 401 403 402
        </DataArray>
        <DataArray type="Int32" Name="offsets" NumberOfComponents="1" format="ascii">
          8 16 24 32 40 48 56 64 72 80 88 96
          104 112 120 128 136 144 152 160 168 176 184 192
          200 208 216 224 232 240 248 256 264 272 280 288
          296 304 312 320 328 336 344 352 360 368 376 384
          392 400 408 416 424 432 440 448 456 464 472 480
          488 496 504 512 520 528 536 544 552 560 568 576
          584 592 600 608 616 624 632 640 648 656 664 672
          680 688 696 704 712 720 728 736 744 752 760 768
          776 784 792 800
        </DataArray>
        <DataArray type="UInt8" Name="types" NumberOfComponents="1" format="ascii">
          12 12 12 12 12 12 12 12 12 12 12 12
          12 12 12 12 12 12 12 12 12 12 12 12
          12 12 12 12 12 12 12 12 12 12 12 12
          12 12 12 12 12 12 12 12 12 12 12 12
          12 12 12 12 12 12 12 12 12 12 12 12
          12 12 12 12 12 12 12 12 12 12 12 12
          12 12 12 12 12 12 12 12 12 12 12 12
          12 12 12 12 12 12 12 12 12 12 12 12
          12 12 12 12
        </DataArray>
      </Cells>
    </Piece>
  </UnstructuredGrid>
</VTKFile>
