<?xml version="1.0"?>
<VTKFile type="UnstructuredGrid" version="0.1" byte_order="LittleEndian">
  <UnstructuredGrid>
    <Piece NumberOfCells="100" NumberOfPoints="404">
      <CellData Scalars="pressure[0]">
        <DataArray type="Float32" Name="pressure[0]" NumberOfComponents="1" format="ascii">
          6.1865e+06 6.19668e+06 6.20686e+06 6.21704e+06 6.22722e+06 6.2374e+06 6.24758e+06 6.25775e+06 6.26793e+06 6.27811e+06 6.28829e+06 6.29847e+06
          6.30865e+06 6.31883e+06 6.32901e+06 6.33919e+06 6.34937e+06 6.35955e+06 6.36973e+06 6.37991e+06 6.39009e+06 6.40026e+06 6.41044e+06 6.42062e+06
          6.4308e+06 6.44098e+06 6.45116e+06 6.46134e+06 6.47152e+06 6.48169e+06 6.49184e+06 6.50192e+06 6.51181e+06 6.52125e+06 6.53042e+06 6.5394e+06
          6.54826e+06 6.55705e+06 6.56581e+06 6.57455e+06 6.58328e+06 6.59202e+06 6.60075e+06 6.60957e+06 6.6137e+06 6.61761e+06 6.62133e+06 6.62491e+06
          6.62837e+06 6.63172e+06 6.63496e+06 6.63811e+06 6.64118e+06 6.64415e+06 6.64704e+06 6.64984e+06 6.65255e+06 6.65518e+06 6.65772e+06 6.66016e+06
          6.66252e+06 6.66477e+06 6.66692e+06 6.66896e+06 6.67088e+06 6.67268e+06 6.67434e+06 6.67586e+06 6.67723e+06 6.67844e+06 6.67952e+06 6.68049e+06
          6.68137e+06 6.68221e+06 6.683e+06 6.68377e+06 6.68452e+06 6.68526e+06 6.686e+06 6.68672e+06 6.68744e+06 6.68815e+06 6.68886e+06 6.68956e+06
          6.69025e+06 6.69094e+06 6.69162e+06 6.6923e+06 6.69297e+06 6.69363e+06 6.69428e+06 6.69493e+06 6.69558e+06 6.69621e+06 6.69684e+06 6.69747e+06
          6.69809e+06 6.6987e+06 6.6993e+06 6.6999e+06
        </DataArray>
        <DataArray type="Float32" Name="pressure[1]" NumberOfComponents="1" format="ascii">
          6.1865e+06 6.19668e+06 6.20686e+06 6.21704e+06 6.22722e+06 6.2374e+06 6.24758e+06 6.25775e+06 6.26793e+06 6.27811e+06 6.28829e+06 6.29847e+06
          6.30865e+06 6.31883e+06 6.32901e+06 6.33919e+06 6.34937e+06 6.35955e+06 6.36973e+06 6.37991e+06 6.39009e+06 6.40026e+06 6.41044e+06 6.42062e+06
          6.4308e+06 6.44098e+06 6.45116e+06 6.46134e+06 6.47152e+06 6.48169e+06 6.49184e+06 6.50192e+06 6.51181e+06 6.52125e+06 6.53042e+06 6.5394e+06
          6.54826e+06 6.55705e+06 6.56581e+06 6.57455e+06 6.58328e+06 6.59202e+06 6.60075e+06 6.60957e+06 6.6137e+06 6.61761e+06 6.62133e+06 6.62491e+06
          6.62837e+06 6.63172e+06 6.63496e+06 6.63811e+06 6.64118e+06 6.64415e+06 6.64704e+06 6.64984e+06 6.65255e+06 6.65518e+06 6.65772e+06 6.66016e+06
          6.66252e+06 6.66477e+06 6.66692e+06 6.66896e+06 6.67088e+06 6.67268e+06 6.67434e+06 6.67586e+06 6.67723e+06 6.67844e+06 6.67952e+06 6.68049e+06
          6.68137e+06 6.68221e+06 6.683e+06 6.68377e+06 6.68452e+06 6.68526e+06 6.686e+06 6.68672e+06 6.68744e+06 6.68815e+06 6.68886e+06 6.68956e+06
          6.69025e+06 6.69094e+06 6.69162e+06 6.6923e+06 6.69297e+06 6.69363e+06 6.69428e+06 6.69493e+06 6.69558e+06 6.69621e+06 6.69684e+06 6.69747e+06
          6.69809e+06 6.6987e+06 6.6993e+06 6.6999e+06
        </DataArray>
        <DataArray type="Float32" Name="pressure[2]" NumberOfComponents="1" format="ascii">
          6.1865e+06 6.19668e+06 6.20686e+06 6.21704e+06 6.22722e+06 6.2374e+06 6.24758e+06 6.25775e+06 6.26793e+06 6.27811e+06 6.28829e+06 6.29847e+06
          6.30865e+06 6.31883e+06 6.32901e+06 6.33919e+06 6.34937e+06 6.35955e+06 6.36973e+06 6.37991e+06 6.39009e+06 6.40026e+06 6.41044e+06 6.42062e+06
          6.4308e+06 6.44098e+06 6.45116e+06 6.46134e+06 6.47152e+06 6.48169e+06 6.49184e+06 6.50192e+06 6.51181e+06 6.52125e+06 6.53042e+06 6.5394e+06
          6.54826e+06 6.55705e+06 6.56581e+06 6.57455e+06 6.58328e+06 6.59202e+06 6.60075e+06 6.60957e+06 6.6137e+06 6.61761e+06 6.62133e+06 6.62491e+06
          6.62837e+06 6.63172e+06 6.63496e+06 6.63811e+06 6.64118e+06 6.64415e+06 6.64704e+06 6.64984e+06 6.65255e+06 6.65518e+06 6.65772e+06 6.66016e+06
          6.66252e+06 6.66477e+06 6.66692e+06 6.66896e+06 6.67088e+06 6.67268e+06 6.67434e+06 6.67586e+06 6.67723e+06 6.67844e+06 6.67952e+06 6.68049e+06
          6.68137e+06 6.68221e+06 6.683e+06 6.68377e+06 6.68452e+06 6.68526e+06 6.686e+06 6.68672e+06 6.68744e+06 6.68815e+06 6.68886e+06 6.68956e+06
          6.69025e+06 6.69094e+06 6.69162e+06 6.6923e+06 6.69297e+06 6.69363e+06 6.69428e+06 6.69493e+06 6.69558e+06 6.69621e+06 6.69684e+06 6.69747e+06
          6.69809e+06 6.6987e+06 6.6993e+06 6.6999e+06
        </DataArray>
        <DataArray type="Float32" Name="velocity[0]" NumberOfComponents="1" format="ascii">
          0 0 0 0 0 0 0 0 0 0 0 0
          0 0 0 0 0 0 0 0 0 0 0 0
          0 0 0 0 0 0 0 0 0 0 0 0
          0 0 0 0 0 0 0 0 0 0 0 0
          0 0 0 0 0 0 0 0 0 0 0 0
          0 0 0 0 0 0 0 0 0 0 0 0
          0 0 0 0 0 0 0 0 0 0 0 0
          0 0 0 0 0 0 0 0 0 0 0 0
          0 0 0 0
        </DataArray>
        <DataArray type="Float32" Name="velocity[1]" NumberOfComponents="1" format="ascii">
          0 0 0 0 0 0 0 0 0 0 0 0
          0 0 0 0 0 0 0 0 0 0 0 0
          0 0 0 0 0 0 0 0 0 0 0 0
          0 0 0 0 0 0 0 0 0 0 0 0
          0 0 0 0 0 0 0 0 0 0 0 0
          0 0 0 0 0 0 0 0 0 0 0 0
          0 0 0 0 0 0 0 0 0 0 0 0
          0 0 0 0 0 0 0 0 0 0 0 0
          0 0 0 0
        </DataArray>
        <DataArray type="Float32" Name="velocity[2]" NumberOfComponents="1" format="ascii">
          1.15812e-20 2.29786e-20 -1.61402e-19 -2.51845e-19 -6.7649e-20 2.18756e-20 2.27948e-20 2.27948e-20 1.15628e-19 2.08462e-19 2.11403e-20 -7.24285e-20
          2.48169e-20 -6.70975e-20 -7.24285e-20 -6.52592e-20 -1.56254e-19 -1.78682e-19 -1.3971e-20 2.20595e-21 -3.11774e-19 -6.5443e-19 -5.35861e-19 -1.2789e-18
          -1.25379e-17 -1.1705e-16 -1.0051e-15 -7.58467e-15 -4.92728e-14 -2.70373e-13 -1.22946e-12 -4.56852e-12 -1.37902e-11 -3.35353e-11 -6.2377e-11 -9.53185e-11
          -1.30499e-10 -1.66903e-10 -2.03907e-10 -2.41138e-10 -2.78388e-10 -3.15549e-10 -2.22727e-10 -9.66206e-07 -1.9423e-06 -1.95062e-06 -1.94605e-06 -1.9391e-06
          -1.92988e-06 -1.91849e-06 -1.90503e-06 -1.88959e-06 -1.87224e-06 -1.85309e-06 -1.8322e-06 -1.80966e-06 -1.78554e-06 -1.75992e-06 -1.73287e-06 -1.70447e-06
          -1.6748e-06 -1.64392e-06 -1.6119e-06 -1.57882e-06 -1.54475e-06 -1.50976e-06 -1.4739e-06 -1.43721e-06 -1.39973e-06 -1.36143e-06 -1.32225e-06 -1.28215e-06
          -1.24108e-06 -1.1991e-06 -1.15632e-06 -1.11291e-06 -1.06902e-06 -1.02479e-06 -9.80304e-07 -9.35628e-07 -8.90797e-07 -8.45833e-07 -8.00749e-07 -7.55555e-07
          -7.1026e-07 -6.64869e-07 -6.1939e-07 -5.73829e-07 -5.28192e-07 -4.82486e-07 -4.36717e-07 -3.90891e-07 -3.45016e-07 -2.99097e-07 -2.53141e-07 -2.07154e-07
          -1.61142e-07 -1.15113e-07 -6.90711e-08 -2.30241e-08
        </DataArray>
        <DataArray type="Float32" Name="z[0]" NumberOfComponents="1" format="ascii">
          1 1 1 1 1 1 1 1 1 1 1 1
          1 1 1 1 1 1 1 1 1 1 1 1
          0.999999 0.999992 0.999938 0.999575 0.997518 0.9879 0.952028 0.848543 0.624456 0.288184 0.152286 0.0803334
          0.0399741 0.0181359 0.00734874 0.0026359 0.000837656 0.000237474 5.89908e-05 1.22408e-05 4.83773e-06 1.58485e-06 4.95012e-07 1.5371e-07
          4.66199e-08 1.37383e-08 3.95776e-09 1.11838e-09 3.08943e-10 8.27343e-11 2.1263e-11 5.19617e-12 1.19892e-12 2.5996e-13 5.2832e-14 1.00539e-14
          1.79192e-15 2.99461e-16 4.70061e-17 6.94542e-18 9.68374e-19 1.27745e-19 1.59884e-20 1.90382e-21 2.16199e-22 2.34456e-23 2.42703e-24 2.39388e-25
          2.24494e-26 1.99828e-27 1.68668e-28 1.34938e-29 1.02304e-30 7.35089e-32 5.00673e-33 3.23344e-34 1.98074e-35 1.15135e-36 6.35257e-38 3.32791e-39
          1.65561e-40 7.82205e-42 3.51726e-43 1.54143e-44 0 0 0 0 0 0 0 0
          0 0 0 1.4013e-45
        </DataArray>
        <DataArray type="Float32" Name="z[1]" NumberOfComponents="1" format="ascii">
          0 0 0 0 0 0 0 0 0 0 0 0
          0 0 0 5.35741e-17 8.98e-16 1.54288e-14 2.50626e-13 3.80007e-12 5.35435e-11 6.97505e-10 8.35098e-09 9.12539e-08
          9.02587e-07 8.00008e-06 6.27623e-05 0.000429102 0.00250706 0.0122217 0.0484552 0.152985 0.379338 0.719019 0.856304 0.928999
          0.969781 0.991854 1.00277 1.00754 1.00937 1.00999 0.99765 0.867887 0.882142 0.875036 0.869054 0.864228
          0.859885 0.855802 0.851862 0.848003 0.844178 0.840328 0.836388 0.832283 0.827928 0.823225 0.81806 0.812292
          0.805743 0.79817 0.789232 0.778435 0.765036 0.747877 0.72511 0.693772 0.649451 0.587115 0.504421 0.405717
          0.302208 0.207246 0.1306 0.0756843 0.0404289 0.0199703 0.00915423 0.00390824 0.00155953 0.000583595 0.000205438 6.82254e-05
          2.14314e-05 6.3833e-06 1.80672e-06 4.86943e-07 1.25205e-07 3.07666e-08 7.23687e-09 1.63187e-09 3.53253e-10 7.35051e-11 1.472e-11 2.84018e-12
          5.28552e-13 9.49737e-14 1.64809e-14 3.36875e-15
        </DataArray>
        <DataArray type="Float32" Name="z[2]" NumberOfComponents="1" format="ascii">
          0 0 0 0 0 0 0 0 0 0 0 0
          0 0 0 0 0 0 0 0 0 0 0 0
          0 0 0 0 0 0 0 0 0 0 0 0
          0 0 7.28571e-23 4.74003e-18 2.52875e-13 1.29603e-08 0.972196 66.7096 70.0158 70.1546 70.2492 70.3314
          70.4079 70.4808 70.5513 70.6202 70.6879 70.7549 70.822 70.8898 70.9591 71.0309 71.1063 71.1864
          71.2732 71.3688 71.4763 71.6007 71.7488 71.9316 72.1669 72.4828 72.9217 73.5319 74.3359 75.2925
          76.2946 77.2145 77.9586 78.4943 78.8413 79.0463 79.1588 79.2177 79.2488 79.2666 79.2786 79.2882
          79.2969 79.3051 79.3133 79.3213 79.3292 79.3371 79.3448 79.3525 79.3602 79.3677 79.3752 79.3826
          79.3899 79.3971 79.4043 79.4114
        </DataArray>
        <DataArray type="Float32" Name="sat[0]" NumberOfComponents="1" format="ascii">
          1 1 1 1 1 1 1 1 1 1 1 1
          1 1 1 1 1 1 1 1 1 1 1 1
          0.999999 0.999992 0.999938 0.999575 0.997518 0.9879 0.952028 0.848543 0.624456 0.288184 0.152286 0.0803334
          0.0399741 0.0181359 0.00734874 0.0026359 0.000837656 0.000237474 5.97005e-05 1.28013e-05 4.83969e-06 1.58485e-06 4.95012e-07 1.5371e-07
          4.662e-08 1.37384e-08 3.95777e-09 1.11838e-09 3.08943e-10 8.27344e-11 2.1263e-11 5.19618e-12 1.19892e-12 2.59961e-13 5.2832e-14 1.00539e-14
          1.79192e-15 2.99462e-16 4.70061e-17 6.94543e-18 9.68376e-19 1.27745e-19 1.59884e-20 1.90383e-21 2.16199e-22 2.34457e-23 2.42704e-24 2.39389e-25
          2.24494e-26 1.99829e-27 1.68668e-28 1.34938e-29 1.02304e-30 7.35089e-32 5.00673e-33 3.23344e-34 1.98074e-35 1.15135e-36 6.35257e-38 3.32791e-39
          1.65561e-40 7.82205e-42 3.51726e-43 1.54143e-44 0 0 0 0 0 0 0 0
          0 0 0 1.4013e-45
        </DataArray>
        <DataArray type="Float32" Name="sat[1]" NumberOfComponents="1" format="ascii">
          0 0 0 0 0 0 0 0 0 0 0 0
          0 0 0 5.30526e-17 8.89243e-16 1.52781e-14 2.48174e-13 3.76283e-12 5.3018e-11 6.90648e-10 8.26875e-09 9.03539e-08
          8.93671e-07 7.92094e-06 6.21404e-05 0.000424844 0.00248214 0.0121 0.047972 0.151457 0.375544 0.711816 0.847714 0.919667
          0.960026 0.981864 0.992651 0.997364 0.999162 0.999763 0.99994 0.935236 0.90936 0.901688 0.895538 0.890579
          0.886117 0.881922 0.877874 0.87391 0.869979 0.866023 0.861974 0.857754 0.853276 0.848439 0.843125 0.83719
          0.830448 0.822651 0.813447 0.802326 0.788522 0.770843 0.747382 0.715086 0.669408 0.60516 0.519927 0.418189
          0.3115 0.213619 0.134616 0.078012 0.0416725 0.0205846 0.00943587 0.00402849 0.00160752 0.000601555 0.000211761 7.03256e-05
          2.20912e-05 6.57983e-06 1.86236e-06 5.01938e-07 1.29061e-07 3.17143e-08 7.45979e-09 1.68214e-09 3.64136e-10 7.577e-11 1.51736e-11 2.92771e-12
          5.44842e-13 9.79011e-14 1.6989e-14 3.47261e-15
        </DataArray>
        <DataArray type="Float32" Name="sat[2]" NumberOfComponents="1" format="ascii">
          0 0 0 0 0 0 0 0 0 0 0 0
          0 0 0 0 0 0 0 0 0 0 0 0
          0 0 0 0 0 0 0 0 0 0 0 0
          0 0 0 0 0 0 0 0.0647512 0.090635 0.0983104 0.104462 0.109421
          0.113883 0.118078 0.122126 0.12609 0.130021 0.133977 0.138026 0.142246 0.146724 0.151561 0.156876 0.16281
          0.169552 0.177349 0.186553 0.197674 0.211478 0.229157 0.252618 0.284914 0.330592 0.39484 0.480073 0.581811
          0.6885 0.786381 0.865384 0.921988 0.958327 0.979415 0.990564 0.995972 0.998392 0.999398 0.999788 0.99993
          0.999978 0.999993 0.999998 1 1 1 1 1 1 1 1 1
          1 1 1 1
        </DataArray>
        <DataArray type="Float32" Name="massFrac[0]" NumberOfComponents="1" format="ascii">
          1 1 1 1 1 1 1 1 1 1 1 1
          1 1 1 1 1 1 1 1 1 1 1 1
          0.999999 0.999993 0.999947 0.999636 0.997871 0.989607 0.958581 0.86726 0.659759 0.320707 0.173202 0.0924437
          0.0463059 0.0210843 0.00855862 0.00307222 0.000976593 0.000276887 6.95879e-05 1.55794e-05 6.04549e-06 1.99531e-06 6.27171e-07 1.95749e-07
          5.96461e-08 1.76541e-08 5.10742e-09 1.44928e-09 4.02018e-10 1.08112e-10 2.79054e-11 6.8503e-12 1.58822e-12 3.46178e-13 7.0762e-14 1.35537e-14
          2.43374e-15 4.10265e-16 6.50681e-17 9.7365e-18 1.37931e-18 1.85773e-19 2.39174e-20 2.96494e-21 3.57468e-22 4.24482e-23 5.0278e-24 5.99026e-25
          7.18401e-26 8.59296e-27 1.00382e-27 1.10787e-28 1.11051e-29 9.81353e-31 7.60832e-32 5.26656e-33 3.33321e-34 1.96446e-35 1.08969e-36 5.71931e-38
          2.84693e-39 1.34529e-40 6.03679e-42 2.57839e-43 9.80909e-45 0 0 0 0 0 0 0
          0 0 0 2.52234e-44
        </DataArray>
        <DataArray type="Float32" Name="massFrac[1]" NumberOfComponents="1" format="ascii">
          0 0 0 0 0 0 0 0 0 0 0 0
          0 0 0 4.54812e-17 7.62348e-16 1.30981e-14 2.12766e-13 3.22603e-12 4.54552e-11 5.9214e-10 7.08948e-09 7.74691e-08
          7.66242e-07 6.7916e-06 5.32819e-05 0.000364304 0.0021291 0.0103934 0.0414187 0.13274 0.340241 0.679293 0.826798 0.907556
          0.953694 0.978916 0.991441 0.996928 0.999023 0.999723 0.99909 0.937738 0.935847 0.935244 0.934747 0.934335
          0.933958 0.9336 0.933251 0.932907 0.932563 0.932215 0.931857 0.931483 0.931085 0.930653 0.930177 0.929642
          0.929031 0.928317 0.927462 0.926412 0.925076 0.923309 0.920853 0.917242 0.911605 0.902398 0.887101 0.861872
          0.821004 0.756571 0.659847 0.527521 0.372562 0.226332 0.118096 0.0540407 0.0222796 0.00845326 0.00299167 0.000995394
          0.00031286 9.31951e-05 2.63769e-05 7.10846e-06 1.82759e-06 4.49049e-07 1.05614e-07 2.3813e-08 5.15434e-09 1.07242e-09 2.14739e-10 4.14296e-11
          7.70925e-12 1.38512e-12 2.40341e-13 4.9122e-14
        </DataArray>
        <DataArray type="Float32" Name="massFrac[2]" NumberOfComponents="1" format="ascii">
          0 0 0 0 0 0 0 0 0 0 0 0
          0 0 0 0 0 0 0 0 0 0 0 0
          0 0 0 0 0 0 0 0 0 0 0 0
          0 0 6.22086e-26 4.05035e-21 2.16143e-16 1.10787e-11 0.000840796 0.0622467 0.0641465 0.0647538 0.0652528 0.065665
          0.0660417 0.0664001 0.066749 0.0670934 0.0674372 0.0677851 0.0681427 0.0685169 0.0689152 0.0693469 0.069823 0.0703576
          0.0709692 0.0716835 0.0725378 0.0735883 0.0749239 0.0766914 0.079147 0.0827585 0.088395 0.0976023 0.112899 0.138128
          0.178996 0.243429 0.340153 0.472479 0.627438 0.773668 0.881904 0.945959 0.97772 0.991547 0.997008 0.999005
          0.999687 0.999907 0.999974 0.999993 0.999998 1 1 1 1 1 1 1
          1 1 1 1
        </DataArray>
        <DataArray type="Float32" Name="total fl. vol." NumberOfComponents="1" format="ascii">
          1 1 1 1 1 1 1 1 1 1 1 1
          1 1 1 1 1 1 1 1 1 1 1 1
          1 1 1 1 1 1 1 1 1 1 1 1
          1 1 1 1 1 1 0.988114 0.956217 0.999597 0.999998 0.999999 0.999999
          0.999999 0.999999 0.999999 0.999999 0.999999 0.999999 0.999999 0.999999 0.999999 0.999999 0.999999 0.999998
          0.999998 0.999998 0.999998 0.999998 0.999998 0.999998 0.999998 0.999998 0.999998 0.999998 0.999998 0.999999
          0.999999 0.999999 0.999999 1 1 1 1 1 1 1 1 1
          1 1 1 1 1 1 1 1 1 1 1 1
          1 1 1 1
        </DataArray>
      </CellData>
      <Points>
        <DataArray type="Float32" Name="Coordinates" NumberOfComponents="3" format="ascii">
          0 0 0 1 0 0 0 1 0 1 1 0
          0 0 1 1 0 1 0 1 1 1 1 1
          0 0 2 1 0 2 0 1 2 1 1 2
          0 0 3 1 0 3 0 1 3 1 1 3
          0 0 4 1 0 4 0 1 4 1 1 4
          0 0 5 1 0 5 0 1 5 1 1 5
          0 0 6 1 0 6 0 1 6 1 1 6
          0 0 7 1 0 7 0 1 7 1 1 7
          0 0 8 1 0 8 0 1 8 1 1 8
          0 0 9 1 0 9 0 1 9 1 1 9
          0 0 10 1 0 10 0 1 10 1 1 10
          0 0 11 1 0 11 0 1 11 1 1 11
          0 0 12 1 0 12 0 1 12 1 1 12
          0 0 13 1 0 13 0 1 13 1 1 13
          0 0 14 1 0 14 0 1 14 1 1 14
          0 0 15 1 0 15 0 1 15 1 1 15
          0 0 16 1 0 16 0 1 16 1 1 16
          0 0 17 1 0 17 0 1 17 1 1 17
          0 0 18 1 0 18 0 1 18 1 1 18
          0 0 19 1 0 19 0 1 19 1 1 19
          0 0 20 1 0 20 0 1 20 1 1 20
          0 0 21 1 0 21 0 1 21 1 1 21
          0 0 22 1 0 22 0 1 22 1 1 22
          0 0 23 1 0 23 0 1 23 1 1 23
          0 0 24 1 0 24 0 1 24 1 1 24
          0 0 25 1 0 25 0 1 25 1 1 25
          0 0 26 1 0 26 0 1 26 1 1 26
          0 0 27 1 0 27 0 1 27 1 1 27
          0 0 28 1 0 28 0 1 28 1 1 28
          0 0 29 1 0 29 0 1 29 1 1 29
          0 0 30 1 0 30 0 1 30 1 1 30
          0 0 31 1 0 31 0 1 31 1 1 31
          0 0 32 1 0 32 0 1 32 1 1 32
          0 0 33 1 0 33 0 1 33 1 1 33
          0 0 34 1 0 34 0 1 34 1 1 34
          0 0 35 1 0 35 0 1 35 1 1 35
          0 0 36 1 0 36 0 1 36 1 1 36
          0 0 37 1 0 37 0 1 37 1 1 37
          0 0 38 1 0 38 0 1 38 1 1 38
          0 0 39 1 0 39 0 1 39 1 1 39
          0 0 40 1 0 40 0 1 40 1 1 40
          0 0 41 1 0 41 0 1 41 1 1 41
          0 0 42 1 0 42 0 1 42 1 1 42
          0 0 43 1 0 43 0 1 43 1 1 43
          0 0 44 1 0 44 0 1 44 1 1 44
          0 0 45 1 0 45 0 1 45 1 1 45
          0 0 46 1 0 46 0 1 46 1 1 46
          0 0 47 1 0 47 0 1 47 1 1 47
          0 0 48 1 0 48 0 1 48 1 1 48
          0 0 49 1 0 49 0 1 49 1 1 49
          0 0 50 1 0 50 0 1 50 1 1 50
          0 0 51 1 0 51 0 1 51 1 1 51
          0 0 52 1 0 52 0 1 52 1 1 52
          0 0 53 1 0 53 0 1 53 1 1 53
          0 0 54 1 0 54 0 1 54 1 1 54
          0 0 55 1 0 55 0 1 55 1 1 55
          0 0 56 1 0 56 0 1 56 1 1 56
          0 0 57 1 0 57 0 1 57 1 1 57
          0 0 58 1 0 58 0 1 58 1 1 58
          0 0 59 1 0 59 0 1 59 1 1 59
          0 0 60 1 0 60 0 1 60 1 1 60
          0 0 61 1 0 61 0 1 61 1 1 61
          0 0 62 1 0 62 0 1 62 1 1 62
          0 0 63 1 0 63 0 1 63 1 1 63
          0 0 64 1 0 64 0 1 64 1 1 64
          0 0 65 1 0 65 0 1 65 1 1 65
          0 0 66 1 0 66 0 1 66 1 1 66
          0 0 67 1 0 67 0 1 67 1 1 67
          0 0 68 1 0 68 0 1 68 1 1 68
          0 0 69 1 0 69 0 1 69 1 1 69
          0 0 70 1 0 70 0 1 70 1 1 70
          0 0 71 1 0 71 0 1 71 1 1 71
          0 0 72 1 0 72 0 1 72 1 1 72
          0 0 73 1 0 73 0 1 73 1 1 73
          0 0 74 1 0 74 0 1 74 1 1 74
          0 0 75 1 0 75 0 1 75 1 1 75
          0 0 76 1 0 76 0 1 76 1 1 76
          0 0 77 1 0 77 0 1 77 1 1 77
          0 0 78 1 0 78 0 1 78 1 1 78
          0 0 79 1 0 79 0 1 79 1 1 79
          0 0 80 1 0 80 0 1 80 1 1 80
          0 0 81 1 0 81 0 1 81 1 1 81
          0 0 82 1 0 82 0 1 82 1 1 82
          0 0 83 1 0 83 0 1 83 1 1 83
          0 0 84 1 0 84 0 1 84 1 1 84
          0 0 85 1 0 85 0 1 85 1 1 85
          0 0 86 1 0 86 0 1 86 1 1 86
          0 0 87 1 0 87 0 1 87 1 1 87
          0 0 88 1 0 88 0 1 88 1 1 88
          0 0 89 1 0 89 0 1 89 1 1 89
          0 0 90 1 0 90 0 1 90 1 1 90
          0 0 91 1 0 91 0 1 91 1 1 91
          0 0 92 1 0 92 0 1 92 1 1 92
          0 0 93 1 0 93 0 1 93 1 1 93
          0 0 94 1 0 94 0 1 94 1 1 94
          0 0 95 1 0 95 0 1 95 1 1 95
          0 0 96 1 0 96 0 1 96 1 1 96
          0 0 97 1 0 97 0 1 97 1 1 97
          0 0 98 1 0 98 0 1 98 1 1 98
          0 0 99 1 0 99 0 1 99 1 1 99
          0 0 100 1 0 100 0 1 100 1 1 100
        </DataArray>
      </Points>
      <Cells>
        <DataArray type="Int32" Name="connectivity" NumberOfComponents="1" format="ascii">
          0 1 3 2 4 5 7 6 4 5 7 6
          8 9 11 10 8 9 11 10 12 13 15 14
          12 13 15 14 16 17 19 18 16 17 19 18
          20 21 23 22 20 21 23 22 24 25 27 26
          24 25 27 26 28 29 31 30 28 29 31 30
          32 33 35 34 32 33 35 34 36 37 39 38
          36 37 39 38 40 41 43 42 40 41 43 42
          44 45 47 46 44 45 47 46 48 49 51 50
          48 49 51 50 52 53 55 54 52 53 55 54
          56 57 59 58 56 57 59 58 60 61 63 62
          60 61 63 62 64 65 67 66 64 65 67 66
          68 69 71 70 68 69 71 70 72 73 75 74
          72 73 75 74 76 77 79 78 76 77 79 78
          80 81 83 82 80 81 83 82 84 85 87 86
          84 85 87 86 88 89 91 90 88 89 91 90
          92 93 95 94 92 93 95 94 96 97 99 98
          96 97 99 98 100 101 103 102 100 101 103 102
          104 105 107 106 104 105 107 106 108 109 111 110
          108 109 111 110 112 113 115 114 112 113 115 114
          116 117 119 118 116 117 119 118 120 121 123 122
          120 121 123 122 124 125 127 126 124 125 127 126
          128 129 131 130 128 129 131 130 132 133 135 134
          132 133 135 134 136 137 139 138 136 137 139 138
          140 141 143 142 140 141 143 142 144 145 147 146
          144 145 147 146 148 149 151 150 148 149 151 150
          152 153 155 154 152 153 155 154 156 157 159 158
          156 157 159 158 160 161 163 162 160 161 163 162
          164 165 167 166 164 165 167 166 168 169 171 170
          168 169 171 170 172 173 175 174 172 173 175 174
          176 177 179 178 176 177 179 178 180 181 183 182
          180 181 183 182 184 185 187 186 184 185 187 186
          188 189 191 190 188 189 191 190 192 193 195 194
          192 193 195 194 196 197 199 198 196 197 199 198
          200 201 203 202 200 201 203 202 204 205 207 206
          204 205 207 206 208 209 211 210 208 209 211 210
          212 213 215 214 212 213 215 214 216 217 219 218
          216 217 219 218 220 221 223 222 220 221 223 222
          224 225 227 226 224 225 227 226 228 229 231 230
          228 229 231 230 232 233 235 234 232 233 235 234
          236 237 239 238 236 237 239 238 240 241 243 242
          240 241 243 242 244 245 247 246 244 245 247 246
          248 249 251 250 248 249 251 250 252 253 255 254
          252 253 255 254 256 257 259 258 256 257 259 258
          260 261 263 262 260 261 263 262 264 265 267 266
          264 265 267 266 268 269 271 270 268 269 271 270
          272 273 275 274 272 273 275 274 276 277 279 278
          276 277 279 278 280 281 283 282 280 281 283 282
          284 285 287 286 284 285 287 286 288 289 291 290
          288 289 291 290 292 293 295 294 292 293 295 294
          296 297 299 298 296 297 299 298 300 301 303 302
          300 301 303 302 304 305 307 306 304 305 307 306
          308 309 311 310 308 309 311 310 312 313 315 314
          312 313 315 314 316 317 319 318 316 317 319 318
          320 321 323 322 320 321 323 322 324 325 327 326
          324 325 327 326 328 329 331 330 328 329 331 330
          332 333 335 334 332 333 335 334 336 337 339 338
          336 337 339 338 340 341 343 342 340 341 343 342
          344 345 347 346 344 345 347 346 348 349 351 350
          348 349 351 350 352 353 355 354 352 353 355 354
          356 357 359 358 356 357 359 358 360 361 363 362
          360 361 363 362 364 365 367 366 364 365 367 366
          368 369 371 370 368 369 371 370 372 373 375 374
          372 373 375 374 376 377 379 378 376 377 379 378
          380 381 383 382 380 381 383 382 384 385 387 386
          384 385 387 386 388 389 391 390 388 389 391 390
          392 393 395 394 392 393 395 394 396 397 399 398
          396 397 399 398 400 401 403 402
        </DataArray>
        <DataArray type="Int32" Name="offsets" NumberOfComponents="1" format="ascii">
          8 16 24 32 40 48 56 64 72 80 88 96
          104 112 120 128 136 144 152 160 168 176 184 192
          200 208 216 224 232 240 248 256 264 272 280 288
          296 304 312 320 328 336 344 352 360 368 376 384
          392 400 408 416 424 432 440 448 456 464 472 480
          488 496 504 512 520 528 536 544 552 560 568 576
          584 592 600 608 616 624 632 640 648 656 664 672
          680 688 696 704 712 720 728 736 744 752 760 768
          776 784 792 800
        </DataArray>
        <DataArray type="UInt8" Name="types" NumberOfComponents="1" format="ascii">
          12 12 12 12 12 12 12 12 12 12 12 12
          12 12 12 12 12 12 12 12 12 12 12 12
          12 12 12 12 12 12 12 12 12 12 12 12
          12 12 12 12 12 12 12 12 12 12 12 12
          12 12 12 12 12 12 12 12 12 12 12 12
          12 12 12 12 12 12 12 12 12 12 12 12
          12 12 12 12 12 12 12 12 12 12 12 12
          12 12 12 12 12 12 12 12 12 12 12 12
          12 12 12 12
        </DataArray>
      </Cells>
    </Piece>
  </UnstructuredGrid>
</VTKFile>
