<?xml version="1.0"?>
<VTKFile type="UnstructuredGrid" version="0.1" byte_order="LittleEndian">
  <UnstructuredGrid>
    <Piece NumberOfCells="100" NumberOfPoints="404">
      <CellData Scalars="pressure[0]">
        <DataArray type="Float32" Name="pressure[0]" NumberOfComponents="1" format="ascii">
          5.726e+06 5.73618e+06 5.74636e+06 5.75654e+06 5.76672e+06 5.7769e+06 5.78708e+06 5.79725e+06 5.80743e+06 5.81761e+06 5.82779e+06 5.83797e+06
          5.84815e+06 5.85833e+06 5.86851e+06 5.87869e+06 5.88887e+06 5.89905e+06 5.90923e+06 5.91941e+06 5.92959e+06 5.93976e+06 5.94994e+06 5.96012e+06
          5.9703e+06 5.98048e+06 5.99066e+06 6.00084e+06 6.01102e+06 6.02118e+06 6.03132e+06 6.04137e+06 6.05122e+06 6.0607e+06 6.06992e+06 6.07895e+06
          6.08786e+06 6.09668e+06 6.09923e+06 6.10208e+06 6.10476e+06 6.10734e+06 6.10983e+06 6.11226e+06 6.11463e+06 6.11695e+06 6.11923e+06 6.12146e+06
          6.12365e+06 6.12581e+06 6.12792e+06 6.13e+06 6.13203e+06 6.13403e+06 6.13599e+06 6.1379e+06 6.13977e+06 6.1416e+06 6.14338e+06 6.14512e+06
          6.1468e+06 6.14843e+06 6.15e+06 6.15151e+06 6.15296e+06 6.15433e+06 6.15563e+06 6.15686e+06 6.15799e+06 6.15903e+06 6.15998e+06 6.16085e+06
          6.16165e+06 6.16239e+06 6.16309e+06 6.16376e+06 6.16442e+06 6.16506e+06 6.16569e+06 6.16632e+06 6.16694e+06 6.16756e+06 6.16817e+06 6.16878e+06
          6.16938e+06 6.16998e+06 6.17058e+06 6.17118e+06 6.17177e+06 6.17235e+06 6.17294e+06 6.17352e+06 6.17409e+06 6.17466e+06 6.17523e+06 6.1758e+06
          6.17636e+06 6.17692e+06 6.17747e+06 6.17802e+06
        </DataArray>
        <DataArray type="Float32" Name="pressure[1]" NumberOfComponents="1" format="ascii">
          5.726e+06 5.73618e+06 5.74636e+06 5.75654e+06 5.76672e+06 5.7769e+06 5.78708e+06 5.79725e+06 5.80743e+06 5.81761e+06 5.82779e+06 5.83797e+06
          5.84815e+06 5.85833e+06 5.86851e+06 5.87869e+06 5.88887e+06 5.89905e+06 5.90923e+06 5.91941e+06 5.92959e+06 5.93976e+06 5.94994e+06 5.96012e+06
          5.9703e+06 5.98048e+06 5.99066e+06 6.00084e+06 6.01102e+06 6.02118e+06 6.03132e+06 6.04137e+06 6.05122e+06 6.0607e+06 6.06992e+06 6.07895e+06
          6.08786e+06 6.09668e+06 6.09923e+06 6.10208e+06 6.10476e+06 6.10734e+06 6.10983e+06 6.11226e+06 6.11463e+06 6.11695e+06 6.11923e+06 6.12146e+06
          6.12365e+06 6.12581e+06 6.12792e+06 6.13e+06 6.13203e+06 6.13403e+06 6.13599e+06 6.1379e+06 6.13977e+06 6.1416e+06 6.14338e+06 6.14512e+06
          6.1468e+06 6.14843e+06 6.15e+06 6.15151e+06 6.15296e+06 6.15433e+06 6.15563e+06 6.15686e+06 6.15799e+06 6.15903e+06 6.15998e+06 6.16085e+06
          6.16165e+06 6.16239e+06 6.16309e+06 6.16376e+06 6.16442e+06 6.16506e+06 6.16569e+06 6.16632e+06 6.16694e+06 6.16756e+06 6.16817e+06 6.16878e+06
          6.16938e+06 6.16998e+06 6.17058e+06 6.17118e+06 6.17177e+06 6.17235e+06 6.17294e+06 6.17352e+06 6.17409e+06 6.17466e+06 6.17523e+06 6.1758e+06
          6.17636e+06 6.17692e+06 6.17747e+06 6.17802e+06
        </DataArray>
        <DataArray type="Float32" Name="pressure[2]" NumberOfComponents="1" format="ascii">
          5.726e+06 5.73618e+06 5.74636e+06 5.75654e+06 5.76672e+06 5.7769e+06 5.78708e+06 5.79725e+06 5.80743e+06 5.81761e+06 5.82779e+06 5.83797e+06
          5.84815e+06 5.85833e+06 5.86851e+06 5.87869e+06 5.88887e+06 5.89905e+06 5.90923e+06 5.91941e+06 5.92959e+06 5.93976e+06 5.94994e+06 5.96012e+06
          5.9703e+06 5.98048e+06 5.99066e+06 6.00084e+06 6.01102e+06 6.02118e+06 6.03132e+06 6.04137e+06 6.05122e+06 6.0607e+06 6.06992e+06 6.07895e+06
          6.08786e+06 6.09668e+06 6.09923e+06 6.10208e+06 6.10476e+06 6.10734e+06 6.10983e+06 6.11226e+06 6.11463e+06 6.11695e+06 6.11923e+06 6.12146e+06
          6.12365e+06 6.12581e+06 6.12792e+06 6.13e+06 6.13203e+06 6.13403e+06 6.13599e+06 6.1379e+06 6.13977e+06 6.1416e+06 6.14338e+06 6.14512e+06
          6.1468e+06 6.14843e+06 6.15e+06 6.15151e+06 6.15296e+06 6.15433e+06 6.15563e+06 6.15686e+06 6.15799e+06 6.15903e+06 6.15998e+06 6.16085e+06
          6.16165e+06 6.16239e+06 6.16309e+06 6.16376e+06 6.16442e+06 6.16506e+06 6.16569e+06 6.16632e+06 6.16694e+06 6.16756e+06 6.16817e+06 6.16878e+06
          6.16938e+06 6.16998e+06 6.17058e+06 6.17118e+06 6.17177e+06 6.17235e+06 6.17294e+06 6.17352e+06 6.17409e+06 6.17466e+06 6.17523e+06 6.1758e+06
          6.17636e+06 6.17692e+06 6.17747e+06 6.17802e+06
        </DataArray>
        <DataArray type="Float32" Name="velocity[0]" NumberOfComponents="1" format="ascii">
          0 0 0 0 0 0 0 0 0 0 0 0
          0 0 0 0 0 0 0 0 0 0 0 0
          0 0 0 0 0 0 0 0 0 0 0 0
          0 0 0 0 0 0 0 0 0 0 0 0
          0 0 0 0 0 0 0 0 0 0 0 0
          0 0 0 0 0 0 0 0 0 0 0 0
          0 0 0 0 0 0 0 0 0 0 0 0
          0 0 0 0 0 0 0 0 0 0 0 0
          0 0 0 0
        </DataArray>
        <DataArray type="Float32" Name="velocity[1]" NumberOfComponents="1" format="ascii">
          0 0 0 0 0 0 0 0 0 0 0 0
          0 0 0 0 0 0 0 0 0 0 0 0
          0 0 0 0 0 0 0 0 0 0 0 0
          0 0 0 0 0 0 0 0 0 0 0 0
          0 0 0 0 0 0 0 0 0 0 0 0
          0 0 0 0 0 0 0 0 0 0 0 0
          0 0 0 0 0 0 0 0 0 0 0 0
          0 0 0 0 0 0 0 0 0 0 0 0
          0 0 0 0
        </DataArray>
        <DataArray type="Float32" Name="velocity[2]" NumberOfComponents="1" format="ascii">
          1.15812e-20 2.29786e-20 2.24271e-20 2.38977e-20 2.42654e-20 2.18756e-20 -6.91196e-20 1.14709e-19 2.07543e-19 2.46331e-20 2.04969e-19 2.03315e-19
          1.16731e-19 2.48169e-20 -1.64527e-19 1.17099e-19 1.01657e-19 -4.30159e-20 8.73187e-20 6.7649e-20 1.96329e-19 8.12523e-20 -1.73442e-18 -1.66911e-17
          -1.41113e-16 -1.08041e-15 -7.36975e-15 -4.42401e-14 -2.30267e-13 -1.02257e-12 -3.81919e-12 -1.18927e-11 -3.0795e-11 -6.60803e-11 -1.14856e-10 -1.69943e-10
          -1.56558e-10 -3.20615e-07 -8.21978e-07 -1.00588e-06 -1.01187e-06 -1.01756e-06 -1.02276e-06 -1.02732e-06 -1.03111e-06 -1.03403e-06 -1.036e-06 -1.03695e-06
          -1.03683e-06 -1.03561e-06 -1.03325e-06 -1.02974e-06 -1.02506e-06 -1.01921e-06 -1.0122e-06 -1.00404e-06 -9.9473e-07 -9.84308e-07 -9.72794e-07 -9.60218e-07
          -9.46614e-07 -9.32021e-07 -9.16479e-07 -9.00034e-07 -8.82733e-07 -8.64625e-07 -8.45762e-07 -8.26192e-07 -8.05962e-07 -7.85108e-07 -7.63653e-07 -7.41604e-07
          -7.18957e-07 -6.95716e-07 -6.71907e-07 -6.47582e-07 -6.22817e-07 -5.97692e-07 -5.72282e-07 -5.46649e-07 -5.20837e-07 -4.94876e-07 -4.68786e-07 -4.4258e-07
          -4.16269e-07 -3.89861e-07 -3.63361e-07 -3.36778e-07 -3.10117e-07 -2.83384e-07 -2.56587e-07 -2.29731e-07 -2.02824e-07 -1.7587e-07 -1.48877e-07 -1.21851e-07
          -9.47989e-08 -6.77266e-08 -4.06407e-08 -1.35476e-08
        </DataArray>
        <DataArray type="Float32" Name="z[0]" NumberOfComponents="1" format="ascii">
          1 1 1 1 1 1 1 1 1 1 1 1
          1 1 1 1 1 1 1 1 1 1 1 0.999999
          0.999996 0.999969 0.9998 0.998882 0.994646 0.978495 0.928989 0.809906 0.591121 0.308118 0.177296 0.102578
          0.0570567 0.0257461 0.0132958 0.00707932 0.00368236 0.0018058 0.000852852 0.000389783 0.000172133 7.33408e-05 3.01745e-05 1.20197e-05
          4.65066e-06 1.75322e-06 6.45484e-07 2.32439e-07 8.19298e-08 2.8278e-08 9.55973e-09 3.16642e-09 1.02793e-09 3.27138e-10 1.02058e-10 3.11964e-11
          9.33481e-12 2.73083e-12 7.79889e-13 2.17114e-13 5.88449e-14 1.55126e-14 3.97534e-15 9.90166e-16 2.3975e-16 5.64473e-17 1.29227e-17 2.8746e-18
          6.20416e-19 1.29691e-19 2.62157e-20 5.11807e-21 9.64257e-22 1.75236e-22 3.0713e-23 5.19167e-24 8.46566e-25 1.33202e-25 2.02307e-26 2.96711e-27
          4.20388e-28 5.75625e-29 7.62035e-30 9.75727e-31 1.20884e-31 1.44964e-32 1.68331e-33 1.89337e-34 2.0636e-35 2.18012e-36 2.23326e-37 2.21889e-38
          2.13894e-39 2.00103e-40 1.8172e-41 1.75302e-42
        </DataArray>
        <DataArray type="Float32" Name="z[1]" NumberOfComponents="1" format="ascii">
          0 0 0 0 0 0 0 0 0 0 0 0
          0 3.18531e-18 1.02643e-16 1.51515e-15 2.25537e-14 3.16708e-13 4.1723e-12 5.13504e-11 5.87796e-10 6.22595e-09 6.06606e-08 5.39895e-07
          4.35333e-06 3.14849e-05 0.000201754 0.00112816 0.00540349 0.0217053 0.0716747 0.191874 0.412713 0.698381 0.830444 0.905877
          0.951829 0.92202 0.877128 0.878764 0.874838 0.871122 0.867181 0.863421 0.859907 0.856553 0.853313 0.850157
          0.847051 0.84396 0.840856 0.837711 0.834494 0.83117 0.827694 0.824016 0.820078 0.815807 0.811119 0.805905
          0.800029 0.793313 0.785511 0.776284 0.765148 0.751389 0.73394 0.711179 0.680696 0.639219 0.583287 0.51119
          0.425332 0.332864 0.243516 0.166012 0.105374 0.0623191 0.0343991 0.0177623 0.00860186 0.00391725 0.00168194 0.000682627
          0.000262505 9.58628e-05 3.33142e-05 1.10387e-05 3.49385e-06 1.05807e-06 3.07062e-07 8.5521e-08 2.28899e-08 5.8951e-09 1.46262e-09 3.49982e-10
          8.08522e-11 1.80508e-11 3.8982e-12 1.02024e-12
        </DataArray>
        <DataArray type="Float32" Name="z[2]" NumberOfComponents="1" format="ascii">
          0 0 0 0 0 0 0 0 0 0 0 0
          0 0 0 0 0 0 0 0 0 6.02558e-44 2.789e-41 1.15203e-38
          4.36404e-36 1.64103e-33 6.9176e-31 3.37287e-28 1.68665e-25 7.63485e-23 2.96711e-20 9.95204e-18 3.03267e-15 9.30512e-13 3.73373e-10 6.68823e-07
          0.00325585 8.12189 62.8971 64.3532 64.6596 64.8532 64.9812 65.0715 65.1415 65.201 65.2551 65.3062
          65.3557 65.4044 65.4527 65.5009 65.5494 65.5983 65.6482 65.6994 65.7524 65.8078 65.8664 65.9289
          65.9967 66.0711 66.1543 66.2492 66.3598 66.4922 66.6556 66.8639 67.1376 67.505 67.9958 68.6248
          69.3715 70.1748 70.951 71.6253 72.1544 72.5323 72.78 72.9305 73.0167 73.0643 73.0909 73.1067
          73.1175 73.126 73.1337 73.1409 73.148 73.155 73.1619 73.1688 73.1756 73.1824 73.1892 73.1959
          73.2025 73.2091 73.2157 73.2222
        </DataArray>
        <DataArray type="Float32" Name="sat[0]" NumberOfComponents="1" format="ascii">
          1 1 1 1 1 1 1 1 1 1 1 1
          1 1 1 1 1 1 1 1 1 1 1 0.999999
          0.999996 0.999969 0.9998 0.998882 0.994646 0.978495 0.928989 0.809906 0.591121 0.308118 0.177296 0.102578
          0.0570573 0.0272876 0.0134808 0.00707933 0.00368236 0.0018058 0.000852853 0.000389783 0.000172133 7.33409e-05 3.01745e-05 1.20197e-05
          4.65066e-06 1.75322e-06 6.45484e-07 2.32439e-07 8.19298e-08 2.8278e-08 9.55973e-09 3.16642e-09 1.02793e-09 3.27138e-10 1.02058e-10 3.11964e-11
          9.33481e-12 2.73083e-12 7.7989e-13 2.17114e-13 5.8845e-14 1.55126e-14 3.97534e-15 9.90167e-16 2.3975e-16 5.64474e-17 1.29228e-17 2.8746e-18
          6.20416e-19 1.29691e-19 2.62157e-20 5.11807e-21 9.64258e-22 1.75236e-22 3.07131e-23 5.19168e-24 8.46566e-25 1.33202e-25 2.02307e-26 2.96711e-27
          4.20388e-28 5.75625e-29 7.62035e-30 9.75727e-31 1.20884e-31 1.44964e-32 1.68331e-33 1.89337e-34 2.0636e-35 2.18012e-36 2.23326e-37 2.21889e-38
          2.13894e-39 2.00103e-40 1.8172e-41 1.75302e-42
        </DataArray>
        <DataArray type="Float32" Name="sat[1]" NumberOfComponents="1" format="ascii">
          0 0 0 0 0 0 0 0 0 0 0 0
          0 3.15667e-18 1.01718e-16 1.50147e-15 2.23499e-14 3.1384e-13 4.13446e-12 5.08838e-11 5.82446e-10 6.16918e-09 6.01065e-08 5.34956e-07
          4.31343e-06 3.11958e-05 0.000199898 0.00111777 0.00535362 0.0215046 0.071011 0.190094 0.408879 0.691882 0.822704 0.897422
          0.942943 0.972712 0.914337 0.903486 0.899459 0.895648 0.891607 0.88775 0.884146 0.880706 0.877384 0.874148
          0.870962 0.867792 0.864609 0.861383 0.858083 0.854671 0.851104 0.84733 0.843287 0.838903 0.834087 0.828732
          0.822697 0.815796 0.807778 0.798295 0.786848 0.772704 0.754764 0.731361 0.700017 0.657365 0.599848 0.525706
          0.437412 0.342319 0.250433 0.170728 0.108368 0.0640899 0.0353766 0.0182671 0.00884635 0.00402861 0.00172976 0.000702035
          0.000269969 9.85889e-05 3.42616e-05 1.13527e-05 3.59323e-06 1.08817e-06 3.15798e-07 8.79543e-08 2.35413e-08 6.06287e-09 1.50424e-09 3.59944e-10
          8.31537e-11 1.85647e-11 4.00918e-12 1.04929e-12
        </DataArray>
        <DataArray type="Float32" Name="sat[2]" NumberOfComponents="1" format="ascii">
          0 0 0 0 0 0 0 0 0 0 0 0
          0 0 0 0 0 0 0 0 0 0 0 0
          0 0 0 0 0 -1.64725e-40 0 0 0 0 0 0
          0 0 0.0721827 0.0894349 0.0968585 0.102546 0.107541 0.11186 0.115682 0.119221 0.122586 0.12584
          0.129034 0.132206 0.135391 0.138617 0.141917 0.145329 0.148896 0.15267 0.156713 0.161097 0.165912 0.171268
          0.177303 0.184204 0.192222 0.201705 0.213152 0.227296 0.245236 0.268639 0.299983 0.342635 0.400152 0.474294
          0.562588 0.657681 0.749567 0.829272 0.891632 0.93591 0.964623 0.981733 0.991154 0.995971 0.99827 0.999298
          0.99973 0.999901 0.999966 0.999989 0.999996 0.999999 1 1 1 1 1 1
          1 1 1 1
        </DataArray>
        <DataArray type="Float32" Name="massFrac[0]" NumberOfComponents="1" format="ascii">
          1 1 1 1 1 1 1 1 1 1 1 1
          1 1 1 1 1 1 1 1 1 1 1 1
          0.999996 0.999973 0.999829 0.999042 0.995409 0.981517 0.938528 0.832556 0.627857 0.341973 0.200949 0.117687
          0.0659536 0.0316121 0.0165363 0.00884608 0.00463906 0.00228906 0.00108688 0.000499025 0.000221267 9.46288e-05 3.90718e-05 1.56176e-05
          6.06332e-06 2.29352e-06 8.47288e-07 3.06167e-07 1.08302e-07 3.75186e-08 1.27329e-08 4.23483e-09 1.38088e-09 4.4159e-10 1.385e-10 4.25889e-11
          1.28303e-11 3.78276e-12 1.09022e-12 3.06836e-13 8.4279e-14 2.25923e-14 5.91622e-15 1.51687e-15 3.8232e-16 9.53262e-17 2.37103e-17 5.9358e-18
          1.50608e-18 3.88262e-19 1.01318e-19 2.64574e-20 6.77359e-21 1.6519e-21 3.72006e-22 7.57384e-23 1.3916e-23 2.34131e-24 3.6774e-25 5.47669e-26
          7.80981e-27 1.07207e-27 1.4205e-28 1.8193e-29 2.25401e-30 2.70285e-31 3.13827e-32 3.52957e-33 3.84656e-34 4.06337e-35 4.16202e-36 4.13487e-37
          3.98553e-38 3.72821e-39 3.38548e-40 3.26657e-41
        </DataArray>
        <DataArray type="Float32" Name="massFrac[1]" NumberOfComponents="1" format="ascii">
          0 0 0 0 0 0 0 0 0 0 0 0
          0 2.70414e-18 8.71375e-17 1.28627e-15 1.91468e-14 2.68866e-13 3.54204e-12 4.35934e-11 4.99004e-10 5.28546e-09 5.14972e-08 4.58339e-07
          3.69572e-06 2.67289e-05 0.000171282 0.000957897 0.00459076 0.0184834 0.0614723 0.167444 0.372143 0.658027 0.799051 0.882313
          0.934044 0.961077 0.926113 0.932199 0.93564 0.93744 0.9382 0.938424 0.938389 0.938229 0.938013 0.937774
          0.937525 0.93727 0.937011 0.936746 0.936474 0.936191 0.935895 0.935581 0.935242 0.934874 0.934468 0.934013
          0.933497 0.932901 0.932201 0.931359 0.930321 0.929004 0.927273 0.924904 0.921509 0.916422 0.908536 0.896111
          0.876538 0.845978 0.798966 0.728547 0.628399 0.498722 0.353713 0.219981 0.120039 0.0584532 0.0259548 0.0106966
          0.00414004 0.00151569 0.000527197 0.000174732 5.53055e-05 1.67476e-05 4.85992e-06 1.35343e-06 3.62216e-07 9.3277e-08 2.31406e-08 5.53668e-09
          1.27896e-09 2.8551e-10 6.16523e-11 1.61343e-11
        </DataArray>
        <DataArray type="Float32" Name="massFrac[2]" NumberOfComponents="1" format="ascii">
          0 0 0 0 0 0 0 0 0 0 0 0
          0 0 0 0 0 0 0 0 0 0 2.10195e-44 8.44563e-42
          3.19945e-39 1.20311e-36 5.07172e-34 2.47319e-31 1.2375e-28 5.6147e-26 2.19765e-23 7.50029e-21 2.36155e-18 7.57153e-16 3.10254e-13 5.62567e-10
          2.7592e-06 0.00731114 0.0573511 0.0589545 0.0597206 0.0602707 0.0607132 0.061077 0.0613902 0.0616764 0.0619476 0.0622104
          0.0624693 0.0627278 0.0629884 0.0632536 0.0635259 0.0638084 0.0641048 0.0644194 0.0647576 0.0651258 0.0655321 0.0659866
          0.0665027 0.0670986 0.0677994 0.0686415 0.0696791 0.0709959 0.0727267 0.0750964 0.0784915 0.083578 0.0914643 0.103889
          0.123462 0.154022 0.201034 0.271453 0.371601 0.501278 0.646287 0.780019 0.879961 0.941547 0.974045 0.989303
          0.99586 0.998484 0.999473 0.999825 0.999945 0.999983 0.999995 0.999999 1 1 1 1
          1 1 1 1
        </DataArray>
        <DataArray type="Float32" Name="total fl. vol." NumberOfComponents="1" format="ascii">
          1 1 1 1 1 1 1 1 1 1 1 1
          1 1 1 1 1 1 1 1 1 1 1 1
          1 1 1 1 1 1 1 1 1 1 1 1
          0.99999 0.94351 0.986279 0.999999 0.999999 0.999999 1 1 1 1 1 1
          1 1 1 1 1 1 0.999999 0.999999 0.999999 0.999999 0.999999 0.999999
          0.999999 0.999999 0.999999 0.999999 0.999999 0.999999 0.999999 0.999999 0.999999 0.999999 0.999999 0.999999
          0.999999 0.999999 0.999999 0.999999 1 1 1 1 1 1 1 1
          1 1 1 1 1 1 1 1 1 1 1 1
          1 1 1 1
        </DataArray>
      </CellData>
      <Points>
        <DataArray type="Float32" Name="Coordinates" NumberOfComponents="3" format="ascii">
          0 0 0 1 0 0 0 1 0 1 1 0
          0 0 1 1 0 1 0 1 1 1 1 1
          0 0 2 1 0 2 0 1 2 1 1 2
          0 0 3 1 0 3 0 1 3 1 1 3
          0 0 4 1 0 4 0 1 4 1 1 4
          0 0 5 1 0 5 0 1 5 1 1 5
          0 0 6 1 0 6 0 1 6 1 1 6
          0 0 7 1 0 7 0 1 7 1 1 7
          0 0 8 1 0 8 0 1 8 1 1 8
          0 0 9 1 0 9 0 1 9 1 1 9
          0 0 10 1 0 10 0 1 10 1 1 10
          0 0 11 1 0 11 0 1 11 1 1 11
          0 0 12 1 0 12 0 1 12 1 1 12
          0 0 13 1 0 13 0 1 13 1 1 13
          0 0 14 1 0 14 0 1 14 1 1 14
          0 0 15 1 0 15 0 1 15 1 1 15
          0 0 16 1 0 16 0 1 16 1 1 16
          0 0 17 1 0 17 0 1 17 1 1 17
          0 0 18 1 0 18 0 1 18 1 1 18
          0 0 19 1 0 19 0 1 19 1 1 19
          0 0 20 1 0 20 0 1 20 1 1 20
          0 0 21 1 0 21 0 1 21 1 1 21
          0 0 22 1 0 22 0 1 22 1 1 22
          0 0 23 1 0 23 0 1 23 1 1 23
          0 0 24 1 0 24 0 1 24 1 1 24
          0 0 25 1 0 25 0 1 25 1 1 25
          0 0 26 1 0 26 0 1 26 1 1 26
          0 0 27 1 0 27 0 1 27 1 1 27
          0 0 28 1 0 28 0 1 28 1 1 28
          0 0 29 1 0 29 0 1 29 1 1 29
          0 0 30 1 0 30 0 1 30 1 1 30
          0 0 31 1 0 31 0 1 31 1 1 31
          0 0 32 1 0 32 0 1 32 1 1 32
          0 0 33 1 0 33 0 1 33 1 1 33
          0 0 34 1 0 34 0 1 34 1 1 34
          0 0 35 1 0 35 0 1 35 1 1 35
          0 0 36 1 0 36 0 1 36 1 1 36
          0 0 37 1 0 37 0 1 37 1 1 37
          0 0 38 1 0 38 0 1 38 1 1 38
          0 0 39 1 0 39 0 1 39 1 1 39
          0 0 40 1 0 40 0 1 40 1 1 40
          0 0 41 1 0 41 0 1 41 1 1 41
          0 0 42 1 0 42 0 1 42 1 1 42
          0 0 43 1 0 43 0 1 43 1 1 43
          0 0 44 1 0 44 0 1 44 1 1 44
          0 0 45 1 0 45 0 1 45 1 1 45
          0 0 46 1 0 46 0 1 46 1 1 46
          0 0 47 1 0 47 0 1 47 1 1 47
          0 0 48 1 0 48 0 1 48 1 1 48
          0 0 49 1 0 49 0 1 49 1 1 49
          0 0 50 1 0 50 0 1 50 1 1 50
          0 0 51 1 0 51 0 1 51 1 1 51
          0 0 52 1 0 52 0 1 52 1 1 52
          0 0 53 1 0 53 0 1 53 1 1 53
          0 0 54 1 0 54 0 1 54 1 1 54
          0 0 55 1 0 55 0 1 55 1 1 55
          0 0 56 1 0 56 0 1 56 1 1 56
          0 0 57 1 0 57 0 1 57 1 1 57
          0 0 58 1 0 58 0 1 58 1 1 58
          0 0 59 1 0 59 0 1 59 1 1 59
          0 0 60 1 0 60 0 1 60 1 1 60
          0 0 61 1 0 61 0 1 61 1 1 61
          0 0 62 1 0 62 0 1 62 1 1 62
          0 0 63 1 0 63 0 1 63 1 1 63
          0 0 64 1 0 64 0 1 64 1 1 64
          0 0 65 1 0 65 0 1 65 1 1 65
          0 0 66 1 0 66 0 1 66 1 1 66
          0 0 67 1 0 67 0 1 67 1 1 67
          0 0 68 1 0 68 0 1 68 1 1 68
          0 0 69 1 0 69 0 1 69 1 1 69
          0 0 70 1 0 70 0 1 70 1 1 70
          0 0 71 1 0 71 0 1 71 1 1 71
          0 0 72 1 0 72 0 1 72 1 1 72
          0 0 73 1 0 73 0 1 73 1 1 73
          0 0 74 1 0 74 0 1 74 1 1 74
          0 0 75 1 0 75 0 1 75 1 1 75
          0 0 76 1 0 76 0 1 76 1 1 76
          0 0 77 1 0 77 0 1 77 1 1 77
          0 0 78 1 0 78 0 1 78 1 1 78
          0 0 79 1 0 79 0 1 79 1 1 79
          0 0 80 1 0 80 0 1 80 1 1 80
          0 0 81 1 0 81 0 1 81 1 1 81
          0 0 82 1 0 82 0 1 82 1 1 82
          0 0 83 1 0 83 0 1 83 1 1 83
          0 0 84 1 0 84 0 1 84 1 1 84
          0 0 85 1 0 85 0 1 85 1 1 85
          0 0 86 1 0 86 0 1 86 1 1 86
          0 0 87 1 0 87 0 1 87 1 1 87
          0 0 88 1 0 88 0 1 88 1 1 88
          0 0 89 1 0 89 0 1 89 1 1 89
          0 0 90 1 0 90 0 1 90 1 1 90
          0 0 91 1 0 91 0 1 91 1 1 91
          0 0 92 1 0 92 0 1 92 1 1 92
          0 0 93 1 0 93 0 1 93 1 1 93
          0 0 94 1 0 94 0 1 94 1 1 94
          0 0 95 1 0 95 0 1 95 1 1 95
          0 0 96 1 0 96 0 1 96 1 1 96
          0 0 97 1 0 97 0 1 97 1 1 97
          0 0 98 1 0 98 0 1 98 1 1 98
          0 0 99 1 0 99 0 1 99 1 1 99
          0 0 100 1 0 100 0 1 100 1 1 100
        </DataArray>
      </Points>
      <Cells>
        <DataArray type="Int32" Name="connectivity" NumberOfComponents="1" format="ascii">
          0 1 3 2 4 5 7 6 4 5 7 6
          8 9 11 10 8 9 11 10 12 13 15 14
          12 13 15 14 16 17 19 18 16 17 19 18
          20 21 23 22 20 21 23 22 24 25 27 26
          24 25 27 26 28 29 31 30 28 29 31 30
          32 33 35 34 32 33 35 34 36 37 39 38
          36 37 39 38 40 41 43 42 40 41 43 42
          44 45 47 46 44 45 47 46 48 49 51 50
          48 49 51 50 52 53 55 54 52 53 55 54
          56 57 59 58 56 57 59 58 60 61 63 62
          60 61 63 62 64 65 67 66 64 65 67 66
          68 69 71 70 68 69 71 70 72 73 75 74
          72 73 75 74 76 77 79 78 76 77 79 78
          80 81 83 82 80 81 83 82 84 85 87 86
          84 85 87 86 88 89 91 90 88 89 91 90
          92 93 95 94 92 93 95 94 96 97 99 98
          96 97 99 98 100 101 103 102 100 101 103 102
          104 105 107 106 104 105 107 106 108 109 111 110
          108 109 111 110 112 113 115 114 112 113 115 114
          116 117 119 118 116 117 119 118 120 121 123 122
          120 121 123 122 124 125 127 126 124 125 127 126
          128 129 131 130 128 129 131 130 132 133 135 134
          132 133 135 134 136 137 139 138 136 137 139 138
          140 141 143 142 140 141 143 142 144 145 147 146
          144 145 147 146 148 149 151 150 148 149 151 150
          152 153 155 154 152 153 155 154 156 157 159 158
          156 157 159 158 160 161 163 162 160 161 163 162
          164 165 167 166 164 165 167 166 168 169 171 170
          168 169 171 170 172 173 175 174 172 173 175 174
          176 177 179 178 176 177 179 178 180 181 183 182
          180 181 183 182 184 185 187 186 184 185 187 186
          188 189 191 190 188 189 191 190 192 193 195 194
          192 193 195 194 196 197 199 198 196 197 199 198
          200 201 203 202 200 201 203 202 204 205 207 206
          204 205 207 206 208 209 211 210 208 209 211 210
          212 213 215 214 212 213 215 214 216 217 219 218
          216 217 219 218 220 221 223 222 220 221 223 222
          224 225 227 226 224 225 227 226 228 229 231 230
          228 229 231 230 232 233 235 234 232 233 235 234
          236 237 239 238 236 237 239 238 240 241 243 242
          240 241 243 242 244 245 247 246 244 245 247 246
          248 249 251 250 248 249 251 250 252 253 255 254
          252 253 255 254 256 257 259 258 256 257 259 258
          260 261 263 262 260 261 263 262 264 265 267 266
          264 265 267 266 268 269 271 270 268 269 271 270
          272 273 275 274 272 273 275 274 276 277 279 278
          276 277 279 278 280 281 283 282 280 281 283 282
          284 285 287 286 284 285 287 286 288 289 291 290
          288 289 291 290 292 293 295 294 292 293 295 294
          296 297 299 298 296 297 299 298 300 301 303 302
          300 301 303 302 304 305 307 306 304 305 307 306
          308 309 311 310 308 309 311 310 312 313 315 314
          312 313 315 314 316 317 319 318 316 317 319 318
          320 321 323 322 320 321 323 322 324 325 327 326
          324 325 327 326 328 329 331 330 328 329 331 330
          332 333 335 334 332 333 335 334 336 337 339 338
          336 337 339 338 340 341 343 342 340 341 343 342
          344 345 347 346 344 345 347 346 348 349 351 350
          348 349 351 350 352 353 355 354 352 353 355 354
          356 357 359 358 356 357 359 358 360 361 363 362
          360 361 363 362 364 365 367 366 364 365 367 366
          368 369 371 370 368 369 371 370 372 373 375 374
          372 373 375 374 376 377 379 378 376 377 379 378
          380 381 383 382 380 381 383 382 384 385 387 386
          384 385 387 386 388 389 391 390 388 389 391 390
          392 393 395 394 392 393 395 394 396 397 399 398
          396 397 399 398 400 401 403 402
        </DataArray>
        <DataArray type="Int32" Name="offsets" NumberOfComponents="1" format="ascii">
          8 16 24 32 40 48 56 64 72 80 88 96
          104 112 120 128 136 144 152 160 168 176 184 192
          200 208 216 224 232 240 248 256 264 272 280 288
          296 304 312 320 328 336 344 352 360 368 376 384
          392 400 408 416 424 432 440 448 456 464 472 480
          488 496 504 512 520 528 536 544 552 560 568 576
          584 592 600 608 616 624 632 640 648 656 664 672
          680 688 696 704 712 720 728 736 744 752 760 768
          776 784 792 800
        </DataArray>
        <DataArray type="UInt8" Name="types" NumberOfComponents="1" format="ascii">
          12 12 12 12 12 12 12 12 12 12 12 12
          12 12 12 12 12 12 12 12 12 12 12 12
          12 12 12 12 12 12 12 12 12 12 12 12
          12 12 12 12 12 12 12 12 12 12 12 12
          12 12 12 12 12 12 12 12 12 12 12 12
          12 12 12 12 12 12 12 12 12 12 12 12
          12 12 12 12 12 12 12 12 12 12 12 12
          12 12 12 12 12 12 12 12 12 12 12 12
          12 12 12 12
        </DataArray>
      </Cells>
    </Piece>
  </UnstructuredGrid>
</VTKFile>
