<?xml version="1.0"?>
<VTKFile type="UnstructuredGrid" version="0.1" byte_order="LittleEndian">
  <UnstructuredGrid>
    <Piece NumberOfCells="100" NumberOfPoints="404">
      <CellData Scalars="pressure[0]">
        <DataArray type="Float32" Name="pressure[0]" NumberOfComponents="1" format="ascii">
          5.989e+06 5.99918e+06 6.00936e+06 6.01954e+06 6.02972e+06 6.0399e+06 6.05008e+06 6.06026e+06 6.07044e+06 6.08062e+06 6.09079e+06 6.10097e+06
          6.11115e+06 6.12133e+06 6.13151e+06 6.14169e+06 6.15187e+06 6.16205e+06 6.17223e+06 6.18241e+06 6.19259e+06 6.20277e+06 6.21295e+06 6.22312e+06
          6.2333e+06 6.24348e+06 6.25366e+06 6.26384e+06 6.27402e+06 6.28419e+06 6.29433e+06 6.3044e+06 6.31428e+06 6.32374e+06 6.33294e+06 6.34196e+06
          6.35087e+06 6.35971e+06 6.36853e+06 6.37733e+06 6.38614e+06 6.38885e+06 6.39245e+06 6.39587e+06 6.39921e+06 6.40247e+06 6.40566e+06 6.4088e+06
          6.41187e+06 6.41489e+06 6.41786e+06 6.42076e+06 6.42361e+06 6.4264e+06 6.42912e+06 6.43178e+06 6.43438e+06 6.4369e+06 6.43935e+06 6.44172e+06
          6.444e+06 6.4462e+06 6.44831e+06 6.45032e+06 6.45222e+06 6.45401e+06 6.45568e+06 6.45721e+06 6.4586e+06 6.45984e+06 6.46096e+06 6.46195e+06
          6.46286e+06 6.4637e+06 6.46449e+06 6.46525e+06 6.466e+06 6.46673e+06 6.46744e+06 6.46816e+06 6.46886e+06 6.46955e+06 6.47024e+06 6.47093e+06
          6.4716e+06 6.47227e+06 6.47294e+06 6.4736e+06 6.47425e+06 6.47489e+06 6.47553e+06 6.47616e+06 6.47679e+06 6.47741e+06 6.47802e+06 6.47863e+06
          6.47923e+06 6.47982e+06 6.4804e+06 6.48098e+06
        </DataArray>
        <DataArray type="Float32" Name="pressure[1]" NumberOfComponents="1" format="ascii">
          5.989e+06 5.99918e+06 6.00936e+06 6.01954e+06 6.02972e+06 6.0399e+06 6.05008e+06 6.06026e+06 6.07044e+06 6.08062e+06 6.09079e+06 6.10097e+06
          6.11115e+06 6.12133e+06 6.13151e+06 6.14169e+06 6.15187e+06 6.16205e+06 6.17223e+06 6.18241e+06 6.19259e+06 6.20277e+06 6.21295e+06 6.22312e+06
          6.2333e+06 6.24348e+06 6.25366e+06 6.26384e+06 6.27402e+06 6.28419e+06 6.29433e+06 6.3044e+06 6.31428e+06 6.32374e+06 6.33294e+06 6.34196e+06
          6.35087e+06 6.35971e+06 6.36853e+06 6.37733e+06 6.38614e+06 6.38885e+06 6.39245e+06 6.39587e+06 6.39921e+06 6.40247e+06 6.40566e+06 6.4088e+06
          6.41187e+06 6.41489e+06 6.41786e+06 6.42076e+06 6.42361e+06 6.4264e+06 6.42912e+06 6.43178e+06 6.43438e+06 6.4369e+06 6.43935e+06 6.44172e+06
          6.444e+06 6.4462e+06 6.44831e+06 6.45032e+06 6.45222e+06 6.45401e+06 6.45568e+06 6.45721e+06 6.4586e+06 6.45984e+06 6.46096e+06 6.46195e+06
          6.46286e+06 6.4637e+06 6.46449e+06 6.46525e+06 6.466e+06 6.46673e+06 6.46744e+06 6.46816e+06 6.46886e+06 6.46955e+06 6.47024e+06 6.47093e+06
          6.4716e+06 6.47227e+06 6.47294e+06 6.4736e+06 6.47425e+06 6.47489e+06 6.47553e+06 6.47616e+06 6.47679e+06 6.47741e+06 6.47802e+06 6.47863e+06
          6.47923e+06 6.47982e+06 6.4804e+06 6.48098e+06
        </DataArray>
        <DataArray type="Float32" Name="pressure[2]" NumberOfComponents="1" format="ascii">
          5.989e+06 5.99918e+06 6.00936e+06 6.01954e+06 6.02972e+06 6.0399e+06 6.05008e+06 6.06026e+06 6.07044e+06 6.08062e+06 6.09079e+06 6.10097e+06
          6.11115e+06 6.12133e+06 6.13151e+06 6.14169e+06 6.15187e+06 6.16205e+06 6.17223e+06 6.18241e+06 6.19259e+06 6.20277e+06 6.21295e+06 6.22312e+06
          6.2333e+06 6.24348e+06 6.25366e+06 6.26384e+06 6.27402e+06 6.28419e+06 6.29433e+06 6.3044e+06 6.31428e+06 6.32374e+06 6.33294e+06 6.34196e+06
          6.35087e+06 6.35971e+06 6.36853e+06 6.37733e+06 6.38614e+06 6.38885e+06 6.39245e+06 6.39587e+06 6.39921e+06 6.40247e+06 6.40566e+06 6.4088e+06
          6.41187e+06 6.41489e+06 6.41786e+06 6.42076e+06 6.42361e+06 6.4264e+06 6.42912e+06 6.43178e+06 6.43438e+06 6.4369e+06 6.43935e+06 6.44172e+06
          6.444e+06 6.4462e+06 6.44831e+06 6.45032e+06 6.45222e+06 6.45401e+06 6.45568e+06 6.45721e+06 6.4586e+06 6.45984e+06 6.46096e+06 6.46195e+06
          6.46286e+06 6.4637e+06 6.46449e+06 6.46525e+06 6.466e+06 6.46673e+06 6.46744e+06 6.46816e+06 6.46886e+06 6.46955e+06 6.47024e+06 6.47093e+06
          6.4716e+06 6.47227e+06 6.47294e+06 6.4736e+06 6.47425e+06 6.47489e+06 6.47553e+06 6.47616e+06 6.47679e+06 6.47741e+06 6.47802e+06 6.47863e+06
          6.47923e+06 6.47982e+06 6.4804e+06 6.48098e+06
        </DataArray>
        <DataArray type="Float32" Name="velocity[0]" NumberOfComponents="1" format="ascii">
          0 0 0 0 0 0 0 0 0 0 0 0
          0 0 0 0 0 0 0 0 0 0 0 0
          0 0 0 0 0 0 0 0 0 0 0 0
          0 0 0 0 0 0 0 0 0 0 0 0
          0 0 0 0 0 0 0 0 0 0 0 0
          0 0 0 0 0 0 0 0 0 0 0 0
          0 0 0 0 0 0 0 0 0 0 0 0
          0 0 0 0 0 0 0 0 0 0 0 0
          0 0 0 0
        </DataArray>
        <DataArray type="Float32" Name="velocity[1]" NumberOfComponents="1" format="ascii">
          0 0 0 0 0 0 0 0 0 0 0 0
          0 0 0 0 0 0 0 0 0 0 0 0
          0 0 0 0 0 0 0 0 0 0 0 0
          0 0 0 0 0 0 0 0 0 0 0 0
          0 0 0 0 0 0 0 0 0 0 0 0
          0 0 0 0 0 0 0 0 0 0 0 0
          0 0 0 0 0 0 0 0 0 0 0 0
          0 0 0 0 0 0 0 0 0 0 0 0
          0 0 0 0
        </DataArray>
        <DataArray type="Float32" Name="velocity[2]" NumberOfComponents="1" format="ascii">
          -8.03332e-20 -6.89358e-20 2.24271e-20 -6.80167e-20 -6.7649e-20 2.18756e-20 1.14709e-19 2.27948e-20 -6.82005e-20 2.46331e-20 2.96883e-19 2.03315e-19
          -6.70975e-20 -6.70975e-20 1.94859e-20 2.64713e-20 -1.58644e-19 -3.0442e-19 -6.51857e-19 -8.76128e-19 -1.00426e-18 -1.65501e-18 -1.01376e-17 -9.7714e-17
          -9.04686e-16 -7.59484e-15 -5.68275e-14 -3.73888e-13 -2.12933e-12 -1.0313e-11 -4.17659e-11 -1.39796e-10 -3.84964e-10 -8.6836e-10 -1.55109e-09 -2.32636e-09
          -3.15382e-09 -4.01194e-09 -4.88774e-09 -5.76784e-09 -1.5484e-07 -9.1243e-07 -1.54876e-06 -1.59754e-06 -1.63729e-06 -1.6711e-06 -1.69935e-06 -1.72241e-06
          -1.74057e-06 -1.75412e-06 -1.76334e-06 -1.76847e-06 -1.76976e-06 -1.76741e-06 -1.76165e-06 -1.75268e-06 -1.74067e-06 -1.72583e-06 -1.70831e-06 -1.68829e-06
          -1.66594e-06 -1.6414e-06 -1.61483e-06 -1.58637e-06 -1.55618e-06 -1.52439e-06 -1.49114e-06 -1.45655e-06 -1.42072e-06 -1.38374e-06 -1.34562e-06 -1.30638e-06
          -1.26602e-06 -1.22459e-06 -1.18217e-06 -1.13891e-06 -1.09498e-06 -1.05052e-06 -1.00565e-06 -9.60458e-07 -9.15001e-07 -8.69313e-07 -8.23419e-07 -7.77336e-07
          -7.31078e-07 -6.84656e-07 -6.38083e-07 -5.91369e-07 -5.44527e-07 -4.97565e-07 -4.50495e-07 -4.03327e-07 -3.56073e-07 -3.08743e-07 -2.61349e-07 -2.13901e-07
          -1.6641e-07 -1.18885e-07 -7.13388e-08 -2.37807e-08
        </DataArray>
        <DataArray type="Float32" Name="z[0]" NumberOfComponents="1" format="ascii">
          1 1 1 1 1 1 1 1 1 1 1 1
          1 1 1 1 1 1 1 1 1 1 1 1
          0.999998 0.999986 0.999899 0.999362 0.996568 0.984569 0.943336 0.833112 0.610375 0.296684 0.162566 0.089234
          0.0465933 0.022407 0.009716 0.00375673 0.00122084 0.000368805 0.000153356 5.97484e-05 2.19511e-05 7.8816e-06 2.77359e-06 9.56137e-07
          3.22311e-07 1.06098e-07 3.40937e-08 1.06992e-08 3.28179e-09 9.84641e-10 2.88881e-10 8.27126e-11 2.30302e-11 6.20868e-12 1.61355e-12 4.0275e-13
          9.62858e-14 2.2009e-14 4.806e-15 1.00249e-15 1.99864e-16 3.81245e-17 6.96819e-18 1.22244e-18 2.06193e-19 3.34818e-20 5.2346e-21 7.87048e-22
          1.13603e-22 1.5716e-23 2.08144e-24 2.63739e-25 3.19648e-26 3.70575e-27 4.1106e-28 4.3645e-29 4.4379e-30 4.32373e-31 4.03833e-32 3.61761e-33
          3.10972e-34 2.56621e-35 2.03382e-36 1.54863e-37 1.13333e-38 7.97403e-40 5.3957e-41 3.51165e-42 2.20004e-43 1.26117e-44 1.4013e-45 0
          0 0 0 1.4013e-45
        </DataArray>
        <DataArray type="Float32" Name="z[1]" NumberOfComponents="1" format="ascii">
          0 0 0 0 0 0 0 0 0 0 0 0
          0 0 1.21217e-17 2.07682e-16 3.43695e-15 5.44569e-14 8.1068e-13 1.12693e-11 1.45631e-10 1.74061e-09 1.91278e-08 1.9192e-07
          1.7437e-06 1.42025e-05 0.000102434 0.000644191 0.00346505 0.0155811 0.0572169 0.16852 0.39344 0.710213 0.845659 0.919724
          0.962798 0.987236 1.00007 1.0061 0.983464 0.885445 0.882992 0.875192 0.870176 0.865573 0.86137 0.85751
          0.853851 0.8503 0.846799 0.843309 0.83979 0.836197 0.832477 0.828568 0.824396 0.819879 0.814913 0.809375
          0.803102 0.79588 0.78741 0.777268 0.764829 0.749143 0.728736 0.701299 0.663376 0.610614 0.539666 0.451542
          0.353498 0.256948 0.172754 0.107342 0.0617089 0.0328957 0.0163075 0.00754157 0.00326395 0.00132612 0.000507295 0.000183219
          6.26354e-05 2.03158e-05 6.26551e-06 1.84103e-06 5.16358e-07 1.38476e-07 3.5565e-08 8.76071e-09 2.07264e-09 4.71557e-10 1.03298e-10 2.18118e-11
          4.44414e-12 8.74611e-13 1.66398e-13 3.73196e-14
        </DataArray>
        <DataArray type="Float32" Name="z[2]" NumberOfComponents="1" format="ascii">
          0 0 0 0 0 0 0 0 0 0 0 0
          0 0 0 0 0 0 0 0 0 0 0 0
          0 0 0 0 0 0 0 8.10395e-37 0 0 0 0
          7.96221e-20 1.88251e-15 2.54746e-11 8.14826e-05 2.82692 67.0077 67.778 67.8905 67.9728 68.0488 68.1199 68.1871
          68.2518 68.3149 68.3771 68.4386 68.4998 68.561 68.6229 68.6858 68.7505 68.8176 68.8881 68.9631
          69.0439 69.1326 69.2318 69.3454 69.4789 69.641 69.8452 70.1124 70.4744 70.971 71.6331 72.4516
          73.3604 74.2551 75.0362 75.645 76.0723 76.3452 76.5059 76.5948 76.6424 76.6684 76.6841 76.6952
          76.7043 76.7126 76.7206 76.7285 76.7362 76.7439 76.7514 76.7589 76.7664 76.7737 76.781 76.7881
          76.7953 76.8023 76.8092 76.8161
        </DataArray>
        <DataArray type="Float32" Name="sat[0]" NumberOfComponents="1" format="ascii">
          1 1 1 1 1 1 1 1 1 1 1 1
          1 1 1 1 1 1 1 1 1 1 1 1
          0.999998 0.999986 0.999899 0.999362 0.996568 0.984569 0.943336 0.833112 0.610375 0.296684 0.162566 0.089234
          0.0465933 0.022407 0.009716 0.00375674 0.00125015 0.000372223 0.000153357 5.97484e-05 2.19512e-05 7.8816e-06 2.77359e-06 9.56138e-07
          3.22311e-07 1.06098e-07 3.40937e-08 1.06992e-08 3.28179e-09 9.84641e-10 2.88881e-10 8.27127e-11 2.30303e-11 6.20868e-12 1.61355e-12 4.0275e-13
          9.62859e-14 2.2009e-14 4.80601e-15 1.00249e-15 1.99864e-16 3.81245e-17 6.9682e-18 1.22244e-18 2.06193e-19 3.34818e-20 5.23461e-21 7.87049e-22
          1.13603e-22 1.57161e-23 2.08144e-24 2.6374e-25 3.19648e-26 3.70576e-27 4.1106e-28 4.3645e-29 4.4379e-30 4.32373e-31 4.03833e-32 3.61761e-33
          3.10972e-34 2.56621e-35 2.03382e-36 1.54863e-37 1.13333e-38 7.97403e-40 5.3957e-41 3.51165e-42 2.20004e-43 1.26117e-44 1.4013e-45 0
          0 0 0 1.4013e-45
        </DataArray>
        <DataArray type="Float32" Name="sat[1]" NumberOfComponents="1" format="ascii">
          0 0 0 0 0 0 0 0 0 0 0 0
          0 0 1.20075e-17 2.05724e-16 3.40448e-15 5.39416e-14 8.02997e-13 1.11623e-11 1.44246e-10 1.72403e-09 1.89453e-08 1.90086e-07
          1.72701e-06 1.40663e-05 0.00010145 0.000637994 0.00343166 0.0154307 0.0566639 0.166888 0.389625 0.703316 0.837434 0.910766
          0.953407 0.977593 0.990284 0.996243 0.99875 0.919946 0.908988 0.900972 0.895821 0.891094 0.88678 0.882818
          0.879064 0.875419 0.871826 0.868244 0.864631 0.860943 0.857123 0.853108 0.848823 0.844181 0.839077 0.833383
          0.826933 0.819504 0.81079 0.800355 0.787552 0.771407 0.750399 0.722151 0.683104 0.628777 0.555721 0.464978
          0.364018 0.264595 0.177896 0.110537 0.0635461 0.0338751 0.0167932 0.00776617 0.00336117 0.00136563 0.000522408 0.000188677
          6.45017e-05 2.09212e-05 6.45224e-06 1.8959e-06 5.3175e-07 1.42604e-07 3.66253e-08 9.02193e-09 2.13444e-09 4.8562e-10 1.06379e-10 2.24624e-11
          4.57671e-12 9.00705e-13 1.71363e-13 3.84332e-14
        </DataArray>
        <DataArray type="Float32" Name="sat[2]" NumberOfComponents="1" format="ascii">
          0 0 0 0 0 0 0 0 0 0 0 0
          0 0 0 0 0 0 0 0 0 0 0 0
          0 0 0 0 0 0 0 0 0 0 0 0
          0 0 0 0 0 0.0796821 0.0908586 0.0989687 0.104157 0.108898 0.113217 0.117181
          0.120936 0.124581 0.128174 0.131756 0.135369 0.139057 0.142877 0.146892 0.151177 0.155819 0.160923 0.166617
          0.173067 0.180496 0.18921 0.199645 0.212448 0.228593 0.249601 0.277849 0.316896 0.371223 0.444279 0.535022
          0.635982 0.735405 0.822104 0.889463 0.936454 0.966125 0.983207 0.992234 0.996639 0.998634 0.999478 0.999811
          0.999936 0.999979 0.999994 0.999998 0.999999 1 1 1 1 1 1 1
          1 1 1 1
        </DataArray>
        <DataArray type="Float32" Name="massFrac[0]" NumberOfComponents="1" format="ascii">
          1 1 1 1 1 1 1 1 1 1 1 1
          1 1 1 1 1 1 1 1 1 1 1 1
          0.999999 0.999988 0.999913 0.999453 0.997057 0.986743 0.95103 0.853445 0.646322 0.329791 0.184634 0.102565
          0.0539305 0.0260392 0.0113146 0.00437912 0.00145651 0.000460324 0.000191827 7.5362e-05 2.78362e-05 1.00439e-05 3.55044e-06 1.22902e-06
          4.15935e-07 1.37443e-07 4.43344e-08 1.39659e-08 4.30032e-09 1.29533e-09 3.81596e-10 1.09733e-10 3.06961e-11 8.31726e-12 2.17366e-12 5.45975e-13
          1.31465e-13 3.03013e-14 6.68224e-15 1.41058e-15 2.85426e-16 5.54914e-17 1.04025e-17 1.89008e-18 3.35364e-19 5.8698e-20 1.02506e-20 1.8033e-21
          3.2102e-22 5.76581e-23 1.0321e-23 1.79922e-24 2.95536e-25 4.41696e-26 5.87784e-27 6.97682e-28 7.52689e-29 7.54123e-30 7.12845e-31 6.41604e-32
          5.52464e-33 4.56147e-34 3.61552e-35 2.75291e-36 2.01449e-37 1.41725e-38 9.58903e-40 6.24124e-41 3.90962e-42 2.35418e-43 1.4013e-44 1.4013e-45
          0 0 0 2.52234e-44
        </DataArray>
        <DataArray type="Float32" Name="massFrac[1]" NumberOfComponents="1" format="ascii">
          0 0 0 0 0 0 0 0 0 0 0 0
          0 0 1.02906e-17 1.7631e-16 2.91777e-15 4.62307e-14 6.88219e-13 9.56692e-12 1.23632e-10 1.47767e-09 1.62384e-08 1.62929e-07
          1.48029e-06 1.20571e-05 8.69617e-05 0.000546929 0.00294306 0.0132566 0.0489699 0.146555 0.353678 0.670209 0.815366 0.897435
          0.94607 0.973961 0.988685 0.995621 0.996071 0.938223 0.937652 0.937144 0.936778 0.936414 0.936067 0.935741
          0.935427 0.935118 0.934812 0.934505 0.934194 0.933875 0.933543 0.933193 0.932819 0.932412 0.931964 0.93146
          0.930887 0.93022 0.929428 0.928464 0.927256 0.925685 0.923557 0.920524 0.915965 0.908781 0.897159 0.878297
          0.848019 0.800276 0.727217 0.621665 0.484354 0.332861 0.197961 0.102344 0.0469959 0.0196356 0.00760206 0.00275862
          0.000944668 0.000306566 9.45569e-05 2.77831e-05 7.79178e-06 2.08939e-06 5.36569e-07 1.3216e-07 3.12638e-08 7.11232e-09 1.55787e-09 3.28918e-10
          6.70105e-11 1.31865e-11 2.50856e-12 5.62567e-13
        </DataArray>
        <DataArray type="Float32" Name="massFrac[2]" NumberOfComponents="1" format="ascii">
          0 0 0 0 0 0 0 0 0 0 0 0
          0 0 0 0 0 0 0 0 0 0 0 0
          0 0 0 0 0 0 0 6.08634e-40 0 0 0 0
          6.75666e-23 1.60386e-18 2.17494e-14 6.96352e-08 0.00247261 0.0613168 0.0621561 0.0627802 0.0631939 0.0635763 0.0639295 0.0642582
          0.0645731 0.0648814 0.0651875 0.0654947 0.065806 0.0661253 0.0664571 0.0668068 0.0671811 0.0675878 0.0680365 0.0685396
          0.0691134 0.0697801 0.0705718 0.0715356 0.0727442 0.0743146 0.0764434 0.0794762 0.0840351 0.0912187 0.102841 0.121703
          0.151981 0.199724 0.272783 0.378335 0.515646 0.667139 0.802039 0.897656 0.953004 0.980364 0.992398 0.997241
          0.999055 0.999693 0.999905 0.999972 0.999992 0.999998 0.999999 1 1 1 1 1
          1 1 1 1
        </DataArray>
        <DataArray type="Float32" Name="total fl. vol." NumberOfComponents="1" format="ascii">
          1 1 1 1 1 1 1 1 1 1 1 1
          1 1 1 1 1 1 1 1 1 1 1 1
          1 1 1 1 1 1 1 1 1 1 1 1
          1 1 1 1 0.976556 0.990817 0.999999 0.999999 0.999999 1 1 1
          1 1 1 1 1 0.999999 0.999999 0.999999 0.999999 0.999999 0.999999 0.999999
          0.999999 0.999999 0.999999 0.999999 0.999999 0.999999 0.999998 0.999998 0.999998 0.999998 0.999999 0.999999
          0.999999 0.999999 0.999999 1 1 1 1 1 1 1 1 1
          1 1 1 1 1 1 1 1 1 1 1 1
          1 1 1 1
        </DataArray>
      </CellData>
      <Points>
        <DataArray type="Float32" Name="Coordinates" NumberOfComponents="3" format="ascii">
          0 0 0 1 0 0 0 1 0 1 1 0
          0 0 1 1 0 1 0 1 1 1 1 1
          0 0 2 1 0 2 0 1 2 1 1 2
          0 0 3 1 0 3 0 1 3 1 1 3
          0 0 4 1 0 4 0 1 4 1 1 4
          0 0 5 1 0 5 0 1 5 1 1 5
          0 0 6 1 0 6 0 1 6 1 1 6
          0 0 7 1 0 7 0 1 7 1 1 7
          0 0 8 1 0 8 0 1 8 1 1 8
          0 0 9 1 0 9 0 1 9 1 1 9
          0 0 10 1 0 10 0 1 10 1 1 10
          0 0 11 1 0 11 0 1 11 1 1 11
          0 0 12 1 0 12 0 1 12 1 1 12
          0 0 13 1 0 13 0 1 13 1 1 13
          0 0 14 1 0 14 0 1 14 1 1 14
          0 0 15 1 0 15 0 1 15 1 1 15
          0 0 16 1 0 16 0 1 16 1 1 16
          0 0 17 1 0 17 0 1 17 1 1 17
          0 0 18 1 0 18 0 1 18 1 1 18
          0 0 19 1 0 19 0 1 19 1 1 19
          0 0 20 1 0 20 0 1 20 1 1 20
          0 0 21 1 0 21 0 1 21 1 1 21
          0 0 22 1 0 22 0 1 22 1 1 22
          0 0 23 1 0 23 0 1 23 1 1 23
          0 0 24 1 0 24 0 1 24 1 1 24
          0 0 25 1 0 25 0 1 25 1 1 25
          0 0 26 1 0 26 0 1 26 1 1 26
          0 0 27 1 0 27 0 1 27 1 1 27
          0 0 28 1 0 28 0 1 28 1 1 28
          0 0 29 1 0 29 0 1 29 1 1 29
          0 0 30 1 0 30 0 1 30 1 1 30
          0 0 31 1 0 31 0 1 31 1 1 31
          0 0 32 1 0 32 0 1 32 1 1 32
          0 0 33 1 0 33 0 1 33 1 1 33
          0 0 34 1 0 34 0 1 34 1 1 34
          0 0 35 1 0 35 0 1 35 1 1 35
          0 0 36 1 0 36 0 1 36 1 1 36
          0 0 37 1 0 37 0 1 37 1 1 37
          0 0 38 1 0 38 0 1 38 1 1 38
          0 0 39 1 0 39 0 1 39 1 1 39
          0 0 40 1 0 40 0 1 40 1 1 40
          0 0 41 1 0 41 0 1 41 1 1 41
          0 0 42 1 0 42 0 1 42 1 1 42
          0 0 43 1 0 43 0 1 43 1 1 43
          0 0 44 1 0 44 0 1 44 1 1 44
          0 0 45 1 0 45 0 1 45 1 1 45
          0 0 46 1 0 46 0 1 46 1 1 46
          0 0 47 1 0 47 0 1 47 1 1 47
          0 0 48 1 0 48 0 1 48 1 1 48
          0 0 49 1 0 49 0 1 49 1 1 49
          0 0 50 1 0 50 0 1 50 1 1 50
          0 0 51 1 0 51 0 1 51 1 1 51
          0 0 52 1 0 52 0 1 52 1 1 52
          0 0 53 1 0 53 0 1 53 1 1 53
          0 0 54 1 0 54 0 1 54 1 1 54
          0 0 55 1 0 55 0 1 55 1 1 55
          0 0 56 1 0 56 0 1 56 1 1 56
          0 0 57 1 0 57 0 1 57 1 1 57
          0 0 58 1 0 58 0 1 58 1 1 58
          0 0 59 1 0 59 0 1 59 1 1 59
          0 0 60 1 0 60 0 1 60 1 1 60
          0 0 61 1 0 61 0 1 61 1 1 61
          0 0 62 1 0 62 0 1 62 1 1 62
          0 0 63 1 0 63 0 1 63 1 1 63
          0 0 64 1 0 64 0 1 64 1 1 64
          0 0 65 1 0 65 0 1 65 1 1 65
          0 0 66 1 0 66 0 1 66 1 1 66
          0 0 67 1 0 67 0 1 67 1 1 67
          0 0 68 1 0 68 0 1 68 1 1 68
          0 0 69 1 0 69 0 1 69 1 1 69
          0 0 70 1 0 70 0 1 70 1 1 70
          0 0 71 1 0 71 0 1 71 1 1 71
          0 0 72 1 0 72 0 1 72 1 1 72
          0 0 73 1 0 73 0 1 73 1 1 73
          0 0 74 1 0 74 0 1 74 1 1 74
          0 0 75 1 0 75 0 1 75 1 1 75
          0 0 76 1 0 76 0 1 76 1 1 76
          0 0 77 1 0 77 0 1 77 1 1 77
          0 0 78 1 0 78 0 1 78 1 1 78
          0 0 79 1 0 79 0 1 79 1 1 79
          0 0 80 1 0 80 0 1 80 1 1 80
          0 0 81 1 0 81 0 1 81 1 1 81
          0 0 82 1 0 82 0 1 82 1 1 82
          0 0 83 1 0 83 0 1 83 1 1 83
          0 0 84 1 0 84 0 1 84 1 1 84
          0 0 85 1 0 85 0 1 85 1 1 85
          0 0 86 1 0 86 0 1 86 1 1 86
          0 0 87 1 0 87 0 1 87 1 1 87
          0 0 88 1 0 88 0 1 88 1 1 88
          0 0 89 1 0 89 0 1 89 1 1 89
          0 0 90 1 0 90 0 1 90 1 1 90
          0 0 91 1 0 91 0 1 91 1 1 91
          0 0 92 1 0 92 0 1 92 1 1 92
          0 0 93 1 0 93 0 1 93 1 1 93
          0 0 94 1 0 94 0 1 94 1 1 94
          0 0 95 1 0 95 0 1 95 1 1 95
          0 0 96 1 0 96 0 1 96 1 1 96
          0 0 97 1 0 97 0 1 97 1 1 97
          0 0 98 1 0 98 0 1 98 1 1 98
          0 0 99 1 0 99 0 1 99 1 1 99
          0 0 100 1 0 100 0 1 100 1 1 100
        </DataArray>
      </Points>
      <Cells>
        <DataArray type="Int32" Name="connectivity" NumberOfComponents="1" format="ascii">
          0 1 3 2 4 5 7 6 4 5 7 6
          8 9 11 10 8 9 11 10 12 13 15 14
          12 13 15 14 16 17 19 18 16 17 19 18
          20 21 23 22 20 21 23 22 24 25 27 26
          24 25 27 26 28 29 31 30 28 29 31 30
          32 33 35 34 32 33 35 34 36 37 39 38
          36 37 39 38 40 41 43 42 40 41 43 42
          44 45 47 46 44 45 47 46 48 49 51 50
          48 49 51 50 52 53 55 54 52 53 55 54
          56 57 59 58 56 57 59 58 60 61 63 62
          60 61 63 62 64 65 67 66 64 65 67 66
          68 69 71 70 68 69 71 70 72 73 75 74
          72 73 75 74 76 77 79 78 76 77 79 78
          80 81 83 82 80 81 83 82 84 85 87 86
          84 85 87 86 88 89 91 90 88 89 91 90
          92 93 95 94 92 93 95 94 96 97 99 98
          96 97 99 98 100 101 103 102 100 101 103 102
          104 105 107 106 104 105 107 106 108 109 111 110
          108 109 111 110 112 113 115 114 112 113 115 114
          116 117 119 118 116 117 119 118 120 121 123 122
          120 121 123 122 124 125 127 126 124 125 127 126
          128 129 131 130 128 129 131 130 132 133 135 134
          132 133 135 134 136 137 139 138 136 137 139 138
          140 141 143 142 140 141 143 142 144 145 147 146
          144 145 147 146 148 149 151 150 148 149 151 150
          152 153 155 154 152 153 155 154 156 157 159 158
          156 157 159 158 160 161 163 162 160 161 163 162
          164 165 167 166 164 165 167 166 168 169 171 170
          168 169 171 170 172 173 175 174 172 173 175 174
          176 177 179 178 176 177 179 178 180 181 183 182
          180 181 183 182 184 185 187 186 184 185 187 186
          188 189 191 190 188 189 191 190 192 193 195 194
          192 193 195 194 196 197 199 198 196 197 199 198
          200 201 203 202 200 201 203 202 204 205 207 206
          204 205 207 206 208 209 211 210 208 209 211 210
          212 213 215 214 212 213 215 214 216 217 219 218
          216 217 219 218 220 221 223 222 220 221 223 222
          224 225 227 226 224 225 227 226 228 229 231 230
          228 229 231 230 232 233 235 234 232 233 235 234
          236 237 239 238 236 237 239 238 240 241 243 242
          240 241 243 242 244 245 247 246 244 245 247 246
          248 249 251 250 248 249 251 250 252 253 255 254
          252 253 255 254 256 257 259 258 256 257 259 258
          260 261 263 262 260 261 263 262 264 265 267 266
          264 265 267 266 268 269 271 270 268 269 271 270
          272 273 275 274 272 273 275 274 276 277 279 278
          276 277 279 278 280 281 283 282 280 281 283 282
          284 285 287 286 284 285 287 286 288 289 291 290
          288 289 291 290 292 293 295 294 292 293 295 294
          296 297 299 298 296 297 299 298 300 301 303 302
          300 301 303 302 304 305 307 306 304 305 307 306
          308 309 311 310 308 309 311 310 312 313 315 314
          312 313 315 314 316 317 319 318 316 317 319 318
          320 321 323 322 320 321 323 322 324 325 327 326
          324 325 327 326 328 329 331 330 328 329 331 330
          332 333 335 334 332 333 335 334 336 337 339 338
          336 337 339 338 340 341 343 342 340 341 343 342
          344 345 347 346 344 345 347 346 348 349 351 350
          348 349 351 350 352 353 355 354 352 353 355 354
          356 357 359 358 356 357 359 358 360 361 363 362
          360 361 363 362 364 365 367 366 364 365 367 366
          368 369 371 370 368 369 371 370 372 373 375 374
          372 373 375 374 376 377 379 378 376 377 379 378
          380 381 383 382 380 381 383 382 384 385 387 386
          384 385 387 386 388 389 391 390 388 389 391 390
          392 393 395 394 392 393 395 394 396 397 399 398
          396 397 399 398 400 401 403 402
        </DataArray>
        <DataArray type="Int32" Name="offsets" NumberOfComponents="1" format="ascii">
          8 16 24 32 40 48 56 64 72 80 88 96
          104 112 120 128 136 144 152 160 168 176 184 192
          200 208 216 224 232 240 248 256 264 272 280 288
          296 304 312 320 328 336 344 352 360 368 376 384
          392 400 408 416 424 432 440 448 456 464 472 480
          488 496 504 512 520 528 536 544 552 560 568 576
          584 592 600 608 616 624 632 640 648 656 664 672
          680 688 696 704 712 720 728 736 744 752 760 768
          776 784 792 800
        </DataArray>
        <DataArray type="UInt8" Name="types" NumberOfComponents="1" format="ascii">
          12 12 12 12 12 12 12 12 12 12 12 12
          12 12 12 12 12 12 12 12 12 12 12 12
          12 12 12 12 12 12 12 12 12 12 12 12
          12 12 12 12 12 12 12 12 12 12 12 12
          12 12 12 12 12 12 12 12 12 12 12 12
          12 12 12 12 12 12 12 12 12 12 12 12
          12 12 12 12 12 12 12 12 12 12 12 12
          12 12 12 12 12 12 12 12 12 12 12 12
          12 12 12 12
        </DataArray>
      </Cells>
    </Piece>
  </UnstructuredGrid>
</VTKFile>
