<?xml version="1.0"?>
<VTKFile type="UnstructuredGrid" version="0.1" byte_order="LittleEndian">
  <UnstructuredGrid>
    <Piece NumberOfCells="100" NumberOfPoints="404">
      <CellData Scalars="pressure[0]">
        <DataArray type="Float32" Name="pressure[0]" NumberOfComponents="1" format="ascii">
          5.76768e+06 5.76819e+06 5.7687e+06 5.76921e+06 5.76972e+06 5.77023e+06 5.77074e+06 5.77125e+06 5.77176e+06 5.77228e+06 5.77279e+06 5.7733e+06
          5.77381e+06 5.77432e+06 5.77483e+06 5.77534e+06 5.77585e+06 5.77636e+06 5.77687e+06 5.77738e+06 5.77789e+06 5.7784e+06 5.77892e+06 5.77943e+06
          5.77994e+06 5.78045e+06 5.78096e+06 5.78147e+06 5.78198e+06 5.78249e+06 5.78301e+06 5.78352e+06 5.7841e+06 5.79296e+06 5.80182e+06 5.81068e+06
          5.81955e+06 5.82842e+06 5.83729e+06 5.84616e+06 5.85503e+06 5.86391e+06 5.87278e+06 5.88165e+06 5.89052e+06 5.89939e+06 5.90826e+06 5.91713e+06
          5.926e+06 5.93487e+06 5.94374e+06 5.95261e+06 5.96149e+06 5.97036e+06 5.97924e+06 5.98811e+06 5.997e+06 6.00612e+06 6.01568e+06 6.02536e+06
          6.03506e+06 6.04475e+06 6.05444e+06 6.06412e+06 6.07379e+06 6.08346e+06 6.09312e+06 6.10278e+06 6.11244e+06 6.12209e+06 6.13175e+06 6.14144e+06
          6.15128e+06 6.16131e+06 6.17144e+06 6.18161e+06 6.19179e+06 6.20197e+06 6.21215e+06 6.22233e+06 6.23251e+06 6.24269e+06 6.25287e+06 6.26305e+06
          6.27322e+06 6.2834e+06 6.29358e+06 6.30376e+06 6.31394e+06 6.32412e+06 6.3343e+06 6.34448e+06 6.35466e+06 6.36484e+06 6.37502e+06 6.3852e+06
          6.39538e+06 6.40556e+06 6.41574e+06 6.42591e+06
        </DataArray>
        <DataArray type="Float32" Name="pressure[1]" NumberOfComponents="1" format="ascii">
          5.76768e+06 5.76819e+06 5.7687e+06 5.76921e+06 5.76972e+06 5.77023e+06 5.77074e+06 5.77125e+06 5.77176e+06 5.77228e+06 5.77279e+06 5.7733e+06
          5.77381e+06 5.77432e+06 5.77483e+06 5.77534e+06 5.77585e+06 5.77636e+06 5.77687e+06 5.77738e+06 5.77789e+06 5.7784e+06 5.77892e+06 5.77943e+06
          5.77994e+06 5.78045e+06 5.78096e+06 5.78147e+06 5.78198e+06 5.78249e+06 5.78301e+06 5.78352e+06 5.7841e+06 5.79296e+06 5.80182e+06 5.81068e+06
          5.81955e+06 5.82842e+06 5.83729e+06 5.84616e+06 5.85503e+06 5.86391e+06 5.87278e+06 5.88165e+06 5.89052e+06 5.89939e+06 5.90826e+06 5.91713e+06
          5.926e+06 5.93487e+06 5.94374e+06 5.95261e+06 5.96149e+06 5.97036e+06 5.97924e+06 5.98811e+06 5.997e+06 6.00612e+06 6.01568e+06 6.02536e+06
          6.03506e+06 6.04475e+06 6.05444e+06 6.06412e+06 6.07379e+06 6.08346e+06 6.09312e+06 6.10278e+06 6.11244e+06 6.12209e+06 6.13175e+06 6.14144e+06
          6.15128e+06 6.16131e+06 6.17144e+06 6.18161e+06 6.19179e+06 6.20197e+06 6.21215e+06 6.22233e+06 6.23251e+06 6.24269e+06 6.25287e+06 6.26305e+06
          6.27322e+06 6.2834e+06 6.29358e+06 6.30376e+06 6.31394e+06 6.32412e+06 6.3343e+06 6.34448e+06 6.35466e+06 6.36484e+06 6.37502e+06 6.3852e+06
          6.39538e+06 6.40556e+06 6.41574e+06 6.42591e+06
        </DataArray>
        <DataArray type="Float32" Name="pressure[2]" NumberOfComponents="1" format="ascii">
          5.76768e+06 5.76819e+06 5.7687e+06 5.76921e+06 5.76972e+06 5.77023e+06 5.77074e+06 5.77125e+06 5.77176e+06 5.77228e+06 5.77279e+06 5.7733e+06
          5.77381e+06 5.77432e+06 5.77483e+06 5.77534e+06 5.77585e+06 5.77636e+06 5.77687e+06 5.77738e+06 5.77789e+06 5.7784e+06 5.77892e+06 5.77943e+06
          5.77994e+06 5.78045e+06 5.78096e+06 5.78147e+06 5.78198e+06 5.78249e+06 5.78301e+06 5.78352e+06 5.7841e+06 5.79296e+06 5.80182e+06 5.81068e+06
          5.81955e+06 5.82842e+06 5.83729e+06 5.84616e+06 5.85503e+06 5.86391e+06 5.87278e+06 5.88165e+06 5.89052e+06 5.89939e+06 5.90826e+06 5.91713e+06
          5.926e+06 5.93487e+06 5.94374e+06 5.95261e+06 5.96149e+06 5.97036e+06 5.97924e+06 5.98811e+06 5.997e+06 6.00612e+06 6.01568e+06 6.02536e+06
          6.03506e+06 6.04475e+06 6.05444e+06 6.06412e+06 6.07379e+06 6.08346e+06 6.09312e+06 6.10278e+06 6.11244e+06 6.12209e+06 6.13175e+06 6.14144e+06
          6.15128e+06 6.16131e+06 6.17144e+06 6.18161e+06 6.19179e+06 6.20197e+06 6.21215e+06 6.22233e+06 6.23251e+06 6.24269e+06 6.25287e+06 6.26305e+06
          6.27322e+06 6.2834e+06 6.29358e+06 6.30376e+06 6.31394e+06 6.32412e+06 6.3343e+06 6.34448e+06 6.35466e+06 6.36484e+06 6.37502e+06 6.3852e+06
          6.39538e+06 6.40556e+06 6.41574e+06 6.42591e+06
        </DataArray>
        <DataArray type="Float32" Name="velocity[0]" NumberOfComponents="1" format="ascii">
          0 0 0 0 0 0 0 0 0 0 0 0
          0 0 0 0 0 0 0 0 0 0 0 0
          0 0 0 0 0 0 0 0 0 0 0 0
          0 0 0 0 0 0 0 0 0 0 0 0
          0 0 0 0 0 0 0 0 0 0 0 0
          0 0 0 0 0 0 0 0 0 0 0 0
          0 0 0 0 0 0 0 0 0 0 0 0
          0 0 0 0 0 0 0 0 0 0 0 0
          0 0 0 0
        </DataArray>
        <DataArray type="Float32" Name="velocity[1]" NumberOfComponents="1" format="ascii">
          0 0 0 0 0 0 0 0 0 0 0 0
          0 0 0 0 0 0 0 0 0 0 0 0
          0 0 0 0 0 0 0 0 0 0 0 0
          0 0 0 0 0 0 0 0 0 0 0 0
          0 0 0 0 0 0 0 0 0 0 0 0
          0 0 0 0 0 0 0 0 0 0 0 0
          0 0 0 0 0 0 0 0 0 0 0 0
          0 0 0 0 0 0 0 0 0 0 0 0
          0 0 0 0
        </DataArray>
        <DataArray type="Float32" Name="velocity[2]" NumberOfComponents="1" format="ascii">
          -8.50137e-13 -2.55035e-12 -4.25043e-12 -5.95034e-12 -7.6501e-12 -9.34973e-12 -1.10492e-11 -1.27485e-11 -1.44477e-11 -1.61467e-11 -1.78456e-11 -1.95443e-11
          -2.12429e-11 -2.29413e-11 -2.46396e-11 -2.63377e-11 -2.80357e-11 -2.97335e-11 -3.14312e-11 -3.31287e-11 -3.48261e-11 -3.65233e-11 -3.82204e-11 -3.99174e-11
          -4.16142e-11 -4.33108e-11 -4.50073e-11 -4.67037e-11 -4.83999e-11 -5.0096e-11 -5.17919e-11 -5.04482e-11 -5.1834e-11 -5.54541e-11 -5.54884e-11 -5.54771e-11
          -5.54743e-11 -5.54773e-11 -5.54863e-11 -5.55011e-11 -5.55198e-11 -5.55398e-11 -5.55589e-11 -5.55762e-11 -5.55918e-11 -5.56067e-11 -5.56213e-11 -5.56356e-11
          -5.56491e-11 -5.56617e-11 -5.56738e-11 -5.56862e-11 -5.56995e-11 -5.57136e-11 -5.56746e-11 -5.34972e-11 -4.40175e-11 -2.92606e-11 -2.2048e-11 -2.15427e-11
          -1.93162e-11 -1.63075e-11 -1.35684e-11 -1.13409e-11 -9.68183e-12 -8.54756e-12 -7.81145e-12 -7.28747e-12 -6.76456e-12 -6.04931e-12 -5.0102e-12 -3.61334e-12
          -2.12593e-12 -9.85766e-13 -3.53683e-13 -9.99456e-14 -2.48685e-14 -5.53709e-15 -8.85716e-16 2.426e-16 5.23179e-16 3.11318e-16 -1.44628e-16 -1.73208e-16
          9.30633e-18 9.68833e-18 9.65947e-18 9.39825e-18 9.68833e-18 9.8433e-18 9.85782e-18 9.96407e-18 9.93521e-18 1.01336e-17 9.87216e-18 9.65947e-18
          9.85782e-18 9.56774e-18 9.75157e-18 5.08121e-18
        </DataArray>
        <DataArray type="Float32" Name="z[0]" NumberOfComponents="1" format="ascii">
          0 0 0 0 0 0 0 0 0 0 0 0
          0 0 0 0 0 0 0 0 0 0 0 0
          0 0 0 0 0 0 0 0 0 0 0 0
          0 0 0 0 0 0 0 0 0 0 0 0
          0 0 0 0 0 1.39656e-08 6.85593e-07 2.87148e-05 0.00107579 0.0323959 0.239937 0.399854
          0.424393 0.423374 0.419523 0.415416 0.411328 0.407289 0.403311 0.39946 0.396061 0.394686 0.402731 0.450749
          0.607875 0.831578 0.952992 0.988967 0.997593 0.999501 0.999902 0.999982 0.999997 0.999999 1 1
          1 1 1 1 1 1 1 1 1 1 1 1
          1 1 1 1
        </DataArray>
        <DataArray type="Float32" Name="z[1]" NumberOfComponents="1" format="ascii">
          0 0 0 0 0 0 0 2.88322e-18 0 0 0 0
          0 0 0 0 0 0 0 0 0 0 0 0
          0 0 2.95029e-17 0 0 0 0 0 0.389105 0.978223 0.976572 0.975656
          0.97494 0.974372 0.974102 0.974127 0.974342 0.974609 0.974816 0.974919 0.974944 0.97494 0.974934 0.974914
          0.974854 0.974746 0.974608 0.974481 0.974401 0.974389 0.974444 0.974527 0.973731 0.943455 0.741256 0.58532
          0.561378 0.562363 0.566111 0.570111 0.574098 0.578045 0.581938 0.585711 0.589045 0.590403 0.58257 0.535742
          0.382486 0.164287 0.0458554 0.0107627 0.0023485 0.000486503 9.59189e-05 1.79768e-05 3.193e-06 5.3201e-07 7.96884e-08 0
          0 0 0 0 0 0 0 0 0 0 0 0
          0 0 0 0
        </DataArray>
        <DataArray type="Float32" Name="z[2]" NumberOfComponents="1" format="ascii">
          68.3503 68.3564 68.3624 68.3685 68.3746 68.3806 68.3867 68.3927 68.3988 68.4049 68.4109 68.417
          68.4231 68.4291 68.4352 68.4413 68.4473 68.4534 68.4595 68.4655 68.4716 68.4777 68.4838 68.4898
          68.4959 68.502 68.508 68.5141 68.5202 68.5263 68.5323 65.5329 65.4727 53.8411 56.5403 58.0728
          59.3256 60.3283 60.8199 60.8046 60.4621 60.0273 59.6955 59.5426 59.5246 59.5555 59.5911 59.6508
          59.7779 59.9884 60.249 60.4932 60.6559 60.7016 60.6322 60.4772 60.2264 58.1646 45.5898 35.9424
          34.4324 34.4622 34.6686 34.8963 35.1271 35.3576 35.5854 35.8052 35.9971 36.0677 35.5773 32.7081
          23.3462 10.0259 2.79791 0.656562 0.143235 0.0296649 0.00584768 0.00109633 0.000195378 3.29083e-05 4.80632e-06 3.47056e-07
          0 0 0 0 0 0 0 0 0 0 0 0
          0 0 0 0
        </DataArray>
        <DataArray type="Float32" Name="sat[0]" NumberOfComponents="1" format="ascii">
          0 0 0 0 0 0 0 0 0 0 0 0
          0 0 0 0 0 0 0 0 0 0 0 0
          0 0 0 0 0 0 0 0 0 0 0 0
          0 0 0 0 0 0 0 0 0 0 0 0
          0 0 0 0 0 1.39656e-08 6.85593e-07 2.87146e-05 0.00107567 0.0323881 0.23987 0.399772
          0.424327 0.423324 0.419485 0.415389 0.411308 0.407272 0.403295 0.399443 0.396043 0.394667 0.402713 0.450732
          0.607862 0.831569 0.952989 0.988966 0.997592 0.999501 0.999902 0.999982 0.999997 0.999999 1 1
          1 1 1 1 1 1 1 1 1 1 1 1
          1 1 1 1
        </DataArray>
        <DataArray type="Float32" Name="sat[1]" NumberOfComponents="1" format="ascii">
          0 0 0 0 0 0 0 2.96004e-18 0 0 0 0
          0 0 0 0 0 0 0 0 0 0 0 0
          0 0 3.02903e-17 0 0 0 0 0 0.399508 1 1 1
          1 1 1 1 1 1 1 1 1 1 1 1
          1 1 1 1 1 1 0.999999 0.999971 0.998924 0.967612 0.76013 0.600228
          0.575673 0.576676 0.580515 0.584611 0.588692 0.592728 0.596705 0.600557 0.603957 0.605333 0.597287 0.549268
          0.392138 0.168431 0.0470114 0.0110338 0.0024076 0.000498733 9.83279e-05 1.84282e-05 3.27349e-06 5.45618e-07 8.16546e-08 0
          0 0 0 0 0 0 0 0 0 0 0 0
          0 0 0 0
        </DataArray>
        <DataArray type="Float32" Name="sat[2]" NumberOfComponents="1" format="ascii">
          1 1 1 1 1 1 1 1 1 1 1 1
          1 1 1 1 1 1 1 1 1 1 1 1
          1 1 1 1 1 1 1 1 0.600492 0 0 0
          0 0 0 0 0 0 0 0 0 0 0 0
          0 0 0 0 0 0 0 0 0 0 0 0
          0 0 0 0 0 0 0 0 0 0 0 0
          0 0 0 0 0 0 0 0 0 0 0 4.67534e-09
          0 0 0 0 0 0 0 0 0 0 0 0
          0 0 0 0
        </DataArray>
        <DataArray type="Float32" Name="massFrac[0]" NumberOfComponents="1" format="ascii">
          0 0 0 0 0 0 0 0 0 0 0 0
          0 0 0 0 0 0 0 0 0 0 0 0
          0 0 0 0 0 0 0 0 0 0 0 0
          0 0 0 0 0 0 0 0 0 0 0 0
          0 0 0 0 0 1.60211e-08 7.86503e-07 3.29418e-05 0.00123388 0.0369826 0.265817 0.433161
          0.458202 0.457182 0.453276 0.449103 0.444941 0.440819 0.436753 0.432811 0.429327 0.427916 0.436148 0.484915
          0.640071 0.849938 0.958772 0.990368 0.997901 0.999565 0.999914 0.999984 0.999997 1 1 1
          1 1 1 1 1 1 1 1 1 1 1 1
          1 1 1 1
        </DataArray>
        <DataArray type="Float32" Name="massFrac[1]" NumberOfComponents="1" format="ascii">
          0 0 0 0 0 0 0 4.88155e-17 0 0 0 0
          0 0 0 0 0 0 0 0 0 0 0 0
          0 0 4.9867e-16 0 0 0 0 0 0.873124 0.954625 0.952382 0.95111
          0.950073 0.949244 0.948838 0.948852 0.949136 0.949496 0.949772 0.949899 0.949915 0.94989 0.949861 0.949812
          0.949708 0.949534 0.949319 0.949118 0.948984 0.948947 0.949005 0.949102 0.948123 0.914337 0.697155 0.538293
          0.514543 0.515535 0.519262 0.523238 0.527202 0.531125 0.534995 0.538747 0.542065 0.543415 0.535604 0.489288
          0.341906 0.142549 0.0391646 0.00914981 0.00199435 0.000413038 8.14304e-05 1.52612e-05 2.71066e-06 4.51645e-07 6.76507e-08 0
          0 0 0 0 0 0 0 0 0 0 0 0
          0 0 0 0
        </DataArray>
        <DataArray type="Float32" Name="massFrac[2]" NumberOfComponents="1" format="ascii">
          1 1 1 1 1 1 1 1 1 1 1 1
          1 1 1 1 1 1 1 1 1 1 1 1
          1 1 1 1 1 1 1 1 0.126876 0.0453753 0.0476184 0.0488897
          0.0499266 0.0507556 0.0511616 0.0511481 0.050864 0.0505036 0.0502283 0.0501011 0.0500854 0.0501103 0.0501391 0.0501877
          0.0502923 0.0504658 0.0506806 0.0508819 0.0510158 0.0510528 0.0509947 0.0508652 0.0506433 0.0486804 0.0370288 0.0285458
          0.0272549 0.0272831 0.0274619 0.0276585 0.0278576 0.0280562 0.0282523 0.0284418 0.0286076 0.0286689 0.0282474 0.0257973
          0.0180226 0.00751269 0.0020637 0.000482034 0.000105044 2.17499e-05 4.28723e-06 8.03767e-07 1.4324e-07 2.41264e-08 3.52371e-09 2.54441e-10
          0 0 0 0 0 0 0 0 0 0 0 0
          0 0 0 0
        </DataArray>
        <DataArray type="Float32" Name="total fl. vol." NumberOfComponents="1" format="ascii">
          1 1 1 1 1 1 1 1 1 1 1 1
          1 1 1 1 1 1 1 1 1 1 1 1
          1 1 1 1 1 1 1 0.956148 0.999966 1.00002 0.999993 0.999995
          0.999996 0.999997 0.999999 1 1 1 1 1 1 1 1 1
          0.999999 0.999999 0.999999 0.999999 1 1 1 1.00001 1.00011 1.00024 1.00028 1.0002
          1.00016 1.00012 1.00009 1.00007 1.00005 1.00004 1.00004 1.00004 1.00005 1.00005 1.00005 1.00004
          1.00002 1.00001 1 1 1 1 1 1 1 1 1 1
          1 1 1 1 1 1 1 1 1 1 1 1
          1 1 1 1
        </DataArray>
      </CellData>
      <Points>
        <DataArray type="Float32" Name="Coordinates" NumberOfComponents="3" format="ascii">
          0 0 0 1 0 0 0 1 0 1 1 0
          0 0 1 1 0 1 0 1 1 1 1 1
          0 0 2 1 0 2 0 1 2 1 1 2
          0 0 3 1 0 3 0 1 3 1 1 3
          0 0 4 1 0 4 0 1 4 1 1 4
          0 0 5 1 0 5 0 1 5 1 1 5
          0 0 6 1 0 6 0 1 6 1 1 6
          0 0 7 1 0 7 0 1 7 1 1 7
          0 0 8 1 0 8 0 1 8 1 1 8
          0 0 9 1 0 9 0 1 9 1 1 9
          0 0 10 1 0 10 0 1 10 1 1 10
          0 0 11 1 0 11 0 1 11 1 1 11
          0 0 12 1 0 12 0 1 12 1 1 12
          0 0 13 1 0 13 0 1 13 1 1 13
          0 0 14 1 0 14 0 1 14 1 1 14
          0 0 15 1 0 15 0 1 15 1 1 15
          0 0 16 1 0 16 0 1 16 1 1 16
          0 0 17 1 0 17 0 1 17 1 1 17
          0 0 18 1 0 18 0 1 18 1 1 18
          0 0 19 1 0 19 0 1 19 1 1 19
          0 0 20 1 0 20 0 1 20 1 1 20
          0 0 21 1 0 21 0 1 21 1 1 21
          0 0 22 1 0 22 0 1 22 1 1 22
          0 0 23 1 0 23 0 1 23 1 1 23
          0 0 24 1 0 24 0 1 24 1 1 24
          0 0 25 1 0 25 0 1 25 1 1 25
          0 0 26 1 0 26 0 1 26 1 1 26
          0 0 27 1 0 27 0 1 27 1 1 27
          0 0 28 1 0 28 0 1 28 1 1 28
          0 0 29 1 0 29 0 1 29 1 1 29
          0 0 30 1 0 30 0 1 30 1 1 30
          0 0 31 1 0 31 0 1 31 1 1 31
          0 0 32 1 0 32 0 1 32 1 1 32
          0 0 33 1 0 33 0 1 33 1 1 33
          0 0 34 1 0 34 0 1 34 1 1 34
          0 0 35 1 0 35 0 1 35 1 1 35
          0 0 36 1 0 36 0 1 36 1 1 36
          0 0 37 1 0 37 0 1 37 1 1 37
          0 0 38 1 0 38 0 1 38 1 1 38
          0 0 39 1 0 39 0 1 39 1 1 39
          0 0 40 1 0 40 0 1 40 1 1 40
          0 0 41 1 0 41 0 1 41 1 1 41
          0 0 42 1 0 42 0 1 42 1 1 42
          0 0 43 1 0 43 0 1 43 1 1 43
          0 0 44 1 0 44 0 1 44 1 1 44
          0 0 45 1 0 45 0 1 45 1 1 45
          0 0 46 1 0 46 0 1 46 1 1 46
          0 0 47 1 0 47 0 1 47 1 1 47
          0 0 48 1 0 48 0 1 48 1 1 48
          0 0 49 1 0 49 0 1 49 1 1 49
          0 0 50 1 0 50 0 1 50 1 1 50
          0 0 51 1 0 51 0 1 51 1 1 51
          0 0 52 1 0 52 0 1 52 1 1 52
          0 0 53 1 0 53 0 1 53 1 1 53
          0 0 54 1 0 54 0 1 54 1 1 54
          0 0 55 1 0 55 0 1 55 1 1 55
          0 0 56 1 0 56 0 1 56 1 1 56
          0 0 57 1 0 57 0 1 57 1 1 57
          0 0 58 1 0 58 0 1 58 1 1 58
          0 0 59 1 0 59 0 1 59 1 1 59
          0 0 60 1 0 60 0 1 60 1 1 60
          0 0 61 1 0 61 0 1 61 1 1 61
          0 0 62 1 0 62 0 1 62 1 1 62
          0 0 63 1 0 63 0 1 63 1 1 63
          0 0 64 1 0 64 0 1 64 1 1 64
          0 0 65 1 0 65 0 1 65 1 1 65
          0 0 66 1 0 66 0 1 66 1 1 66
          0 0 67 1 0 67 0 1 67 1 1 67
          0 0 68 1 0 68 0 1 68 1 1 68
          0 0 69 1 0 69 0 1 69 1 1 69
          0 0 70 1 0 70 0 1 70 1 1 70
          0 0 71 1 0 71 0 1 71 1 1 71
          0 0 72 1 0 72 0 1 72 1 1 72
          0 0 73 1 0 73 0 1 73 1 1 73
          0 0 74 1 0 74 0 1 74 1 1 74
          0 0 75 1 0 75 0 1 75 1 1 75
          0 0 76 1 0 76 0 1 76 1 1 76
          0 0 77 1 0 77 0 1 77 1 1 77
          0 0 78 1 0 78 0 1 78 1 1 78
          0 0 79 1 0 79 0 1 79 1 1 79
          0 0 80 1 0 80 0 1 80 1 1 80
          0 0 81 1 0 81 0 1 81 1 1 81
          0 0 82 1 0 82 0 1 82 1 1 82
          0 0 83 1 0 83 0 1 83 1 1 83
          0 0 84 1 0 84 0 1 84 1 1 84
          0 0 85 1 0 85 0 1 85 1 1 85
          0 0 86 1 0 86 0 1 86 1 1 86
          0 0 87 1 0 87 0 1 87 1 1 87
          0 0 88 1 0 88 0 1 88 1 1 88
          0 0 89 1 0 89 0 1 89 1 1 89
          0 0 90 1 0 90 0 1 90 1 1 90
          0 0 91 1 0 91 0 1 91 1 1 91
          0 0 92 1 0 92 0 1 92 1 1 92
          0 0 93 1 0 93 0 1 93 1 1 93
          0 0 94 1 0 94 0 1 94 1 1 94
          0 0 95 1 0 95 0 1 95 1 1 95
          0 0 96 1 0 96 0 1 96 1 1 96
          0 0 97 1 0 97 0 1 97 1 1 97
          0 0 98 1 0 98 0 1 98 1 1 98
          0 0 99 1 0 99 0 1 99 1 1 99
          0 0 100 1 0 100 0 1 100 1 1 100
        </DataArray>
      </Points>
      <Cells>
        <DataArray type="Int32" Name="connectivity" NumberOfComponents="1" format="ascii">
          0 1 3 2 4 5 7 6 4 5 7 6
          8 9 11 10 8 9 11 10 12 13 15 14
          12 13 15 14 16 17 19 18 16 17 19 18
          20 21 23 22 20 21 23 22 24 25 27 26
          24 25 27 26 28 29 31 30 28 29 31 30
          32 33 35 34 32 33 35 34 36 37 39 38
          36 37 39 38 40 41 43 42 40 41 43 42
          44 45 47 46 44 45 47 46 48 49 51 50
          48 49 51 50 52 53 55 54 52 53 55 54
          56 57 59 58 56 57 59 58 60 61 63 62
          60 61 63 62 64 65 67 66 64 65 67 66
          68 69 71 70 68 69 71 70 72 73 75 74
          72 73 75 74 76 77 79 78 76 77 79 78
          80 81 83 82 80 81 83 82 84 85 87 86
          84 85 87 86 88 89 91 90 88 89 91 90
          92 93 95 94 92 93 95 94 96 97 99 98
          96 97 99 98 100 101 103 102 100 101 103 102
          104 105 107 106 104 105 107 106 108 109 111 110
          108 109 111 110 112 113 115 114 112 113 115 114
          116 117 119 118 116 117 119 118 120 121 123 122
          120 121 123 122 124 125 127 126 124 125 127 126
          128 129 131 130 128 129 131 130 132 133 135 134
          132 133 135 134 136 137 139 138 136 137 139 138
          140 141 143 142 140 141 143 142 144 145 147 146
          144 145 147 146 148 149 151 150 148 149 151 150
          152 153 155 154 152 153 155 154 156 157 159 158
          156 157 159 158 160 161 163 162 160 161 163 162
          164 165 167 166 164 165 167 166 168 169 171 170
          168 169 171 170 172 173 175 174 172 173 175 174
          176 177 179 178 176 177 179 178 180 181 183 182
          180 181 183 182 184 185 187 186 184 185 187 186
          188 189 191 190 188 189 191 190 192 193 195 194
          192 193 195 194 196 197 199 198 196 197 199 198
          200 201 203 202 200 201 203 202 204 205 207 206
          204 205 207 206 208 209 211 210 208 209 211 210
          212 213 215 214 212 213 215 214 216 217 219 218
          216 217 219 218 220 221 223 222 220 221 223 222
          224 225 227 226 224 225 227 226 228 229 231 230
          228 229 231 230 232 233 235 234 232 233 235 234
          236 237 239 238 236 237 239 238 240 241 243 242
          240 241 243 242 244 245 247 246 244 245 247 246
          248 249 251 250 248 249 251 250 252 253 255 254
          252 253 255 254 256 257 259 258 256 257 259 258
          260 261 263 262 260 261 263 262 264 265 267 266
          264 265 267 266 268 269 271 270 268 269 271 270
          272 273 275 274 272 273 275 274 276 277 279 278
          276 277 279 278 280 281 283 282 280 281 283 282
          284 285 287 286 284 285 287 286 288 289 291 290
          288 289 291 290 292 293 295 294 292 293 295 294
          296 297 299 298 296 297 299 298 300 301 303 302
          300 301 303 302 304 305 307 306 304 305 307 306
          308 309 311 310 308 309 311 310 312 313 315 314
          312 313 315 314 316 317 319 318 316 317 319 318
          320 321 323 322 320 321 323 322 324 325 327 326
          324 325 327 326 328 329 331 330 328 329 331 330
          332 333 335 334 332 333 335 334 336 337 339 338
          336 337 339 338 340 341 343 342 340 341 343 342
          344 345 347 346 344 345 347 346 348 349 351 350
          348 349 351 350 352 353 355 354 352 353 355 354
          356 357 359 358 356 357 359 358 360 361 363 362
          360 361 363 362 364 365 367 366 364 365 367 366
          368 369 371 370 368 369 371 370 372 373 375 374
          372 373 375 374 376 377 379 378 376 377 379 378
          380 381 383 382 380 381 383 382 384 385 387 386
          384 385 387 386 388 389 391 390 388 389 391 390
          392 393 395 394 392 393 395 394 396 397 399 398
          396 397 399 398 400 401 403 402
        </DataArray>
        <DataArray type="Int32" Name="offsets" NumberOfComponents="1" format="ascii">
          8 16 24 32 40 48 56 64 72 80 88 96
          104 112 120 128 136 144 152 160 168 176 184 192
          200 208 216 224 232 240 248 256 264 272 280 288
          296 304 312 320 328 336 344 352 360 368 376 384
          392 400 408 416 424 432 440 448 456 464 472 480
          488 496 504 512 520 528 536 544 552 560 568 576
          584 592 600 608 616 624 632 640 648 656 664 672
          680 688 696 704 712 720 728 736 744 752 760 768
          776 784 792 800
        </DataArray>
        <DataArray type="UInt8" Name="types" NumberOfComponents="1" format="ascii">
          12 12 12 12 12 12 12 12 12 12 12 12
          12 12 12 12 12 12 12 12 12 12 12 12
          12 12 12 12 12 12 12 12 12 12 12 12
          12 12 12 12 12 12 12 12 12 12 12 12
          12 12 12 12 12 12 12 12 12 12 12 12
          12 12 12 12 12 12 12 12 12 12 12 12
          12 12 12 12 12 12 12 12 12 12 12 12
          12 12 12 12 12 12 12 12 12 12 12 12
          12 12 12 12
        </DataArray>
      </Cells>
    </Piece>
  </UnstructuredGrid>
</VTKFile>
