<?xml version="1.0"?>
<VTKFile type="UnstructuredGrid" version="0.1" byte_order="LittleEndian">
  <UnstructuredGrid>
    <Piece NumberOfCells="100" NumberOfPoints="404">
      <CellData Scalars="pressure[0]">
        <DataArray type="Float32" Name="pressure[0]" NumberOfComponents="1" format="ascii">
          5.76796e+06 5.76847e+06 5.76898e+06 5.76949e+06 5.77e+06 5.77051e+06 5.77102e+06 5.77153e+06 5.77204e+06 5.77255e+06 5.77306e+06 5.77357e+06
          5.77408e+06 5.7746e+06 5.77511e+06 5.77562e+06 5.77613e+06 5.77664e+06 5.77715e+06 5.77766e+06 5.77817e+06 5.77868e+06 5.77919e+06 5.7797e+06
          5.78022e+06 5.78073e+06 5.78124e+06 5.78175e+06 5.78226e+06 5.78277e+06 5.78328e+06 5.7838e+06 5.78438e+06 5.79324e+06 5.8021e+06 5.81096e+06
          5.81983e+06 5.8287e+06 5.83757e+06 5.84644e+06 5.85531e+06 5.86418e+06 5.87305e+06 5.88192e+06 5.89079e+06 5.89966e+06 5.90853e+06 5.9174e+06
          5.92627e+06 5.93514e+06 5.94401e+06 5.95289e+06 5.96176e+06 5.97063e+06 5.97951e+06 5.98838e+06 5.99725e+06 6.00612e+06 6.015e+06 6.02387e+06
          6.03275e+06 6.04181e+06 6.05132e+06 6.06097e+06 6.07064e+06 6.08031e+06 6.08998e+06 6.09965e+06 6.10936e+06 6.11918e+06 6.12919e+06 6.13932e+06
          6.14949e+06 6.15966e+06 6.16984e+06 6.18002e+06 6.1902e+06 6.20038e+06 6.21056e+06 6.22074e+06 6.23092e+06 6.2411e+06 6.25128e+06 6.26145e+06
          6.27163e+06 6.28181e+06 6.29199e+06 6.30217e+06 6.31235e+06 6.32253e+06 6.33271e+06 6.34289e+06 6.35307e+06 6.36325e+06 6.37343e+06 6.38361e+06
          6.39379e+06 6.40396e+06 6.41414e+06 6.42432e+06
        </DataArray>
        <DataArray type="Float32" Name="pressure[1]" NumberOfComponents="1" format="ascii">
          5.76796e+06 5.76847e+06 5.76898e+06 5.76949e+06 5.77e+06 5.77051e+06 5.77102e+06 5.77153e+06 5.77204e+06 5.77255e+06 5.77306e+06 5.77357e+06
          5.77408e+06 5.7746e+06 5.77511e+06 5.77562e+06 5.77613e+06 5.77664e+06 5.77715e+06 5.77766e+06 5.77817e+06 5.77868e+06 5.77919e+06 5.7797e+06
          5.78022e+06 5.78073e+06 5.78124e+06 5.78175e+06 5.78226e+06 5.78277e+06 5.78328e+06 5.7838e+06 5.78438e+06 5.79324e+06 5.8021e+06 5.81096e+06
          5.81983e+06 5.8287e+06 5.83757e+06 5.84644e+06 5.85531e+06 5.86418e+06 5.87305e+06 5.88192e+06 5.89079e+06 5.89966e+06 5.90853e+06 5.9174e+06
          5.92627e+06 5.93514e+06 5.94401e+06 5.95289e+06 5.96176e+06 5.97063e+06 5.97951e+06 5.98838e+06 5.99725e+06 6.00612e+06 6.015e+06 6.02387e+06
          6.03275e+06 6.04181e+06 6.05132e+06 6.06097e+06 6.07064e+06 6.08031e+06 6.08998e+06 6.09965e+06 6.10936e+06 6.11918e+06 6.12919e+06 6.13932e+06
          6.14949e+06 6.15966e+06 6.16984e+06 6.18002e+06 6.1902e+06 6.20038e+06 6.21056e+06 6.22074e+06 6.23092e+06 6.2411e+06 6.25128e+06 6.26145e+06
          6.27163e+06 6.28181e+06 6.29199e+06 6.30217e+06 6.31235e+06 6.32253e+06 6.33271e+06 6.34289e+06 6.35307e+06 6.36325e+06 6.37343e+06 6.38361e+06
          6.39379e+06 6.40396e+06 6.41414e+06 6.42432e+06
        </DataArray>
        <DataArray type="Float32" Name="pressure[2]" NumberOfComponents="1" format="ascii">
          5.76796e+06 5.76847e+06 5.76898e+06 5.76949e+06 5.77e+06 5.77051e+06 5.77102e+06 5.77153e+06 5.77204e+06 5.77255e+06 5.77306e+06 5.77357e+06
          5.77408e+06 5.7746e+06 5.77511e+06 5.77562e+06 5.77613e+06 5.77664e+06 5.77715e+06 5.77766e+06 5.77817e+06 5.77868e+06 5.77919e+06 5.7797e+06
          5.78022e+06 5.78073e+06 5.78124e+06 5.78175e+06 5.78226e+06 5.78277e+06 5.78328e+06 5.7838e+06 5.78438e+06 5.79324e+06 5.8021e+06 5.81096e+06
          5.81983e+06 5.8287e+06 5.83757e+06 5.84644e+06 5.85531e+06 5.86418e+06 5.87305e+06 5.88192e+06 5.89079e+06 5.89966e+06 5.90853e+06 5.9174e+06
          5.92627e+06 5.93514e+06 5.94401e+06 5.95289e+06 5.96176e+06 5.97063e+06 5.97951e+06 5.98838e+06 5.99725e+06 6.00612e+06 6.015e+06 6.02387e+06
          6.03275e+06 6.04181e+06 6.05132e+06 6.06097e+06 6.07064e+06 6.08031e+06 6.08998e+06 6.09965e+06 6.10936e+06 6.11918e+06 6.12919e+06 6.13932e+06
          6.14949e+06 6.15966e+06 6.16984e+06 6.18002e+06 6.1902e+06 6.20038e+06 6.21056e+06 6.22074e+06 6.23092e+06 6.2411e+06 6.25128e+06 6.26145e+06
          6.27163e+06 6.28181e+06 6.29199e+06 6.30217e+06 6.31235e+06 6.32253e+06 6.33271e+06 6.34289e+06 6.35307e+06 6.36325e+06 6.37343e+06 6.38361e+06
          6.39379e+06 6.40396e+06 6.41414e+06 6.42432e+06
        </DataArray>
        <DataArray type="Float32" Name="velocity[0]" NumberOfComponents="1" format="ascii">
          0 0 0 0 0 0 0 0 0 0 0 0
          0 0 0 0 0 0 0 0 0 0 0 0
          0 0 0 0 0 0 0 0 0 0 0 0
          0 0 0 0 0 0 0 0 0 0 0 0
          0 0 0 0 0 0 0 0 0 0 0 0
          0 0 0 0 0 0 0 0 0 0 0 0
          0 0 0 0 0 0 0 0 0 0 0 0
          0 0 0 0 0 0 0 0 0 0 0 0
          0 0 0 0
        </DataArray>
        <DataArray type="Float32" Name="velocity[1]" NumberOfComponents="1" format="ascii">
          0 0 0 0 0 0 0 0 0 0 0 0
          0 0 0 0 0 0 0 0 0 0 0 0
          0 0 0 0 0 0 0 0 0 0 0 0
          0 0 0 0 0 0 0 0 0 0 0 0
          0 0 0 0 0 0 0 0 0 0 0 0
          0 0 0 0 0 0 0 0 0 0 0 0
          0 0 0 0 0 0 0 0 0 0 0 0
          0 0 0 0 0 0 0 0 0 0 0 0
          0 0 0 0
        </DataArray>
        <DataArray type="Float32" Name="velocity[2]" NumberOfComponents="1" format="ascii">
          -2.97834e-13 -8.93454e-13 -1.48902e-12 -2.08455e-12 -2.68001e-12 -3.27541e-12 -3.87078e-12 -4.46608e-12 -5.06133e-12 -5.65651e-12 -6.25165e-12 -6.84673e-12
          -7.44174e-12 -8.03669e-12 -8.6316e-12 -9.22645e-12 -9.82122e-12 -1.04159e-11 -1.10106e-11 -1.16052e-11 -1.21998e-11 -1.27942e-11 -1.33886e-11 -1.3983e-11
          -1.45773e-11 -1.51715e-11 -1.57657e-11 -1.63597e-11 -1.69538e-11 -1.75478e-11 -1.81417e-11 -1.75185e-11 -1.80022e-11 -1.92986e-11 -1.92324e-11 -1.93017e-11
          -1.93537e-11 -1.93943e-11 -1.94181e-11 -1.94244e-11 -1.94188e-11 -1.94094e-11 -1.94028e-11 -1.94018e-11 -1.94054e-11 -1.94113e-11 -1.94179e-11 -1.94256e-11
          -1.94356e-11 -1.94482e-11 -1.94624e-11 -1.94759e-11 -1.94867e-11 -1.94934e-11 -1.94962e-11 -1.94959e-11 -1.94945e-11 -1.94916e-11 -1.94499e-11 -1.86926e-11
          -1.55936e-11 -1.08594e-11 -8.19992e-12 -7.71485e-12 -7.21497e-12 -6.51553e-12 -5.66594e-12 -4.60031e-12 -3.29752e-12 -1.95176e-12 -9.21367e-13 -3.46729e-13
          -1.04985e-13 -2.82793e-14 -7.07196e-15 -1.56766e-15 -2.31213e-16 1.23463e-15 -8.20827e-15 -1.2594e-14 -4.89682e-15 -1.74212e-15 2.79475e-18 2.67397e-18
          2.87232e-18 3.16241e-18 3.04163e-18 2.87232e-18 2.88666e-18 2.94972e-18 3.05615e-18 2.88666e-18 3.04163e-18 3.14807e-18 2.97858e-18 3.22546e-18
          3.42381e-18 3.40947e-18 3.31756e-18 1.58846e-18
        </DataArray>
        <DataArray type="Float32" Name="z[0]" NumberOfComponents="1" format="ascii">
          0 0 0 0 0 0 0 0 0 0 0 0
          0 0 0 0 0 0 0 0 0 0 0 0
          0 0 0 0 0 0 0 0 0 0 0 0
          0 0 0 0 0 0 0 0 0 0 0 0
          0 0 0 0 0 0 0 0 0 2.05891e-08 7.89553e-07 2.63777e-05
          0.000834446 0.0223868 0.193526 0.36964 0.405359 0.407014 0.406252 0.413549 0.455651 0.594352 0.80913 0.941579
          0.985181 0.996511 0.999218 0.999832 0.999966 0.999993 0.999999 1 1 1 1 1
          1 1 1 1 1 1 1 1 1 1 1 1
          1 1 1 1
        </DataArray>
        <DataArray type="Float32" Name="z[1]" NumberOfComponents="1" format="ascii">
          0 0 0 0 0 0 0 2.88322e-18 0 0 0 0
          0 0 0 0 0 0 0 0 0 0 0 0
          0 0 2.95029e-17 0 0 0 0 0 0.390645 0.978208 0.976575 0.975658
          0.974942 0.974374 0.974103 0.974127 0.974342 0.974609 0.974817 0.97492 0.974944 0.974941 0.974935 0.974914
          0.974855 0.974746 0.974609 0.974482 0.974401 0.97439 0.974445 0.974549 0.974676 0.974803 0.974911 0.974972
          0.974265 0.95332 0.786478 0.614749 0.579929 0.578329 0.579087 0.571981 0.530925 0.39565 0.18617 0.0569841
          0.0144552 0.00340324 0.000762987 0.00016361 3.35487e-05 6.56508e-06 1.21514e-06 2.1313e-07 2.84228e-08 0 0 0
          0 0 0 0 0 0 0 0 0 0 0 0
          0 0 0 0
        </DataArray>
        <DataArray type="Float32" Name="z[2]" NumberOfComponents="1" format="ascii">
          68.3536 68.3597 68.3657 68.3718 68.3779 68.3839 68.39 68.3961 68.4021 68.4082 68.4142 68.4203
          68.4264 68.4324 68.4385 68.4446 68.4506 68.4567 68.4628 68.4689 68.4749 68.481 68.4871 68.4931
          68.4992 68.5053 68.5114 68.5174 68.5235 68.5296 68.5357 65.523 65.4647 53.8447 56.543 58.075
          59.3274 60.3292 60.82 60.8041 60.4614 60.0268 59.6953 59.5426 59.5247 59.5556 59.5913 59.651
          59.7783 59.9889 60.2494 60.4935 60.656 60.7015 60.632 60.4783 60.2843 60.0919 59.9297 59.8088
          59.6827 58.3485 48.1107 37.5917 35.4513 35.3426 35.3781 34.9341 32.4188 24.1542 11.3639 3.47782
          0.882085 0.207637 0.0465427 0.00997906 0.00204727 0.000404351 7.77525e-05 7.86957e-06 1.28519e-06 0 0 0
          0 0 0 0 0 0 0 0 0 0 0 0
          0 0 0 0
        </DataArray>
        <DataArray type="Float32" Name="sat[0]" NumberOfComponents="1" format="ascii">
          0 0 0 0 0 0 0 0 0 0 0 0
          0 0 0 0 0 0 0 0 0 0 0 0
          0 0 0 0 0 0 0 0 0 0 0 0
          0 0 0 0 0 0 0 0 0 0 0 0
          0 0 0 0 0 0 0 0 0 2.05891e-08 7.89553e-07 2.63776e-05
          0.000834427 0.0223857 0.193514 0.369622 0.405341 0.406996 0.406235 0.413533 0.455637 0.594341 0.809123 0.941576
          0.98518 0.996511 0.999218 0.999832 0.999966 0.999993 0.999999 1 1 1 1 1
          1 1 1 1 1 1 1 1 1 1 1 1
          1 1 1 1
        </DataArray>
        <DataArray type="Float32" Name="sat[1]" NumberOfComponents="1" format="ascii">
          0 0 0 0 0 0 0 2.96004e-18 0 0 0 0
          0 0 0 0 0 0 0 0 0 0 0 0
          0 0 3.02903e-17 0 0 0 0 0 0.401084 1 1 1
          1 1 1 1 1 1 1 1 1 1 1 1
          1 1 1 1 1 1 1 1 1 1 0.999999 0.999974
          0.999166 0.977614 0.806486 0.630378 0.594659 0.593004 0.593765 0.586467 0.544363 0.405659 0.190877 0.0584242
          0.0148202 0.0034891 0.000782219 0.000167731 3.43936e-05 6.73246e-06 1.24778e-06 2.15443e-07 2.88695e-08 0 0 0
          0 0 0 0 0 0 0 0 0 0 0 0
          0 0 0 0
        </DataArray>
        <DataArray type="Float32" Name="sat[2]" NumberOfComponents="1" format="ascii">
          1 1 1 1 1 1 1 1 1 1 1 1
          1 1 1 1 1 1 1 1 1 1 1 1
          1 1 1 1 1 1 1 1 0.598916 0 0 0
          0 0 0 0 0 0 0 0 0 0 0 0
          0 0 0 0 0 0 0 0 0 0 0 0
          0 0 0 0 0 0 0 0 0 0 0 0
          0 0 0 0 0 0 0 0 0 0 0 0
          0 0 0 0 0 0 0 0 0 0 0 0
          0 0 0 0
        </DataArray>
        <DataArray type="Float32" Name="massFrac[0]" NumberOfComponents="1" format="ascii">
          0 0 0 0 0 0 0 0 0 0 0 0
          0 0 0 0 0 0 0 0 0 0 0 0
          0 0 0 0 0 0 0 0 0 0 0 0
          0 0 0 0 0 0 0 0 0 0 0 0
          0 0 0 0 0 0 0 0 0 2.36221e-08 9.05889e-07 3.02646e-05
          0.000957282 0.0256002 0.215875 0.402183 0.438854 0.440543 0.439762 0.447207 0.489872 0.626991 0.829444 0.94869
          0.987057 0.996957 0.999318 0.999854 0.99997 0.999994 0.999999 1 1 1 1 1
          1 1 1 1 1 1 1 1 1 1 1 1
          1 1 1 1
        </DataArray>
        <DataArray type="Float32" Name="massFrac[1]" NumberOfComponents="1" format="ascii">
          0 0 0 0 0 0 0 4.88131e-17 0 0 0 0
          0 0 0 0 0 0 0 0 0 0 0 0
          0 0 4.98646e-16 0 0 0 0 0 0.873574 0.954621 0.95238 0.951109
          0.950072 0.949244 0.948838 0.948852 0.949137 0.949497 0.949772 0.949899 0.949915 0.94989 0.949861 0.949812
          0.949707 0.949534 0.949319 0.949118 0.948984 0.948947 0.949005 0.949133 0.949295 0.949454 0.949588 0.94966
          0.948846 0.925482 0.744779 0.567831 0.533007 0.531412 0.532161 0.525097 0.484575 0.354328 0.162015 0.0487415
          0.012295 0.00289044 0.000647795 0.000138898 2.8481e-05 5.57336e-06 1.03158e-06 1.80935e-07 2.41293e-08 0 0 0
          0 0 0 0 0 0 0 0 0 0 0 0
          0 0 0 0
        </DataArray>
        <DataArray type="Float32" Name="massFrac[2]" NumberOfComponents="1" format="ascii">
          1 1 1 1 1 1 1 1 1 1 1 1
          1 1 1 1 1 1 1 1 1 1 1 1
          1 1 1 1 1 1 1 1 0.126426 0.0453788 0.0476204 0.0488913
          0.0499279 0.0507563 0.0511616 0.0511477 0.0508634 0.0505031 0.0502281 0.050101 0.0500855 0.0501104 0.0501392 0.0501879
          0.0502926 0.0504661 0.0506809 0.0508821 0.0510158 0.0510528 0.0509945 0.0508666 0.0507055 0.0505456 0.0504107 0.0503097
          0.0501969 0.048918 0.0393453 0.0299864 0.0281385 0.0280456 0.0280766 0.0276961 0.0255526 0.0186809 0.00854047 0.00256899
          0.000647924 0.000152295 3.41258e-05 7.31621e-06 1.50094e-06 2.96447e-07 5.70035e-08 5.7695e-09 9.42225e-10 0 0 0
          0 0 0 0 0 0 0 0 0 0 0 0
          0 0 0 0
        </DataArray>
        <DataArray type="Float32" Name="total fl. vol." NumberOfComponents="1" format="ascii">
          1 1 1 1 1 1 1 1 1 1 1 1
          1 1 1 1 1 1 1 1 1 1 1 1
          1 1 1 1 1 1 1 0.955958 0.999982 1.00001 0.999997 0.999998
          0.999999 0.999999 1 1 1 1 1 1 1 1 1 1
          1 1 1 1 1 1 1 1 1 1 1 1
          1.00002 1.00005 1.00006 1.00005 1.00004 1.00004 1.00004 1.00004 1.00003 1.00002 1.00001 1
          1 1 1 1 1 1 1 1 1 1 1 1
          1 1 1 1 1 1 1 1 1 1 1 1
          1 1 1 1
        </DataArray>
      </CellData>
      <Points>
        <DataArray type="Float32" Name="Coordinates" NumberOfComponents="3" format="ascii">
          0 0 0 1 0 0 0 1 0 1 1 0
          0 0 1 1 0 1 0 1 1 1 1 1
          0 0 2 1 0 2 0 1 2 1 1 2
          0 0 3 1 0 3 0 1 3 1 1 3
          0 0 4 1 0 4 0 1 4 1 1 4
          0 0 5 1 0 5 0 1 5 1 1 5
          0 0 6 1 0 6 0 1 6 1 1 6
          0 0 7 1 0 7 0 1 7 1 1 7
          0 0 8 1 0 8 0 1 8 1 1 8
          0 0 9 1 0 9 0 1 9 1 1 9
          0 0 10 1 0 10 0 1 10 1 1 10
          0 0 11 1 0 11 0 1 11 1 1 11
          0 0 12 1 0 12 0 1 12 1 1 12
          0 0 13 1 0 13 0 1 13 1 1 13
          0 0 14 1 0 14 0 1 14 1 1 14
          0 0 15 1 0 15 0 1 15 1 1 15
          0 0 16 1 0 16 0 1 16 1 1 16
          0 0 17 1 0 17 0 1 17 1 1 17
          0 0 18 1 0 18 0 1 18 1 1 18
          0 0 19 1 0 19 0 1 19 1 1 19
          0 0 20 1 0 20 0 1 20 1 1 20
          0 0 21 1 0 21 0 1 21 1 1 21
          0 0 22 1 0 22 0 1 22 1 1 22
          0 0 23 1 0 23 0 1 23 1 1 23
          0 0 24 1 0 24 0 1 24 1 1 24
          0 0 25 1 0 25 0 1 25 1 1 25
          0 0 26 1 0 26 0 1 26 1 1 26
          0 0 27 1 0 27 0 1 27 1 1 27
          0 0 28 1 0 28 0 1 28 1 1 28
          0 0 29 1 0 29 0 1 29 1 1 29
          0 0 30 1 0 30 0 1 30 1 1 30
          0 0 31 1 0 31 0 1 31 1 1 31
          0 0 32 1 0 32 0 1 32 1 1 32
          0 0 33 1 0 33 0 1 33 1 1 33
          0 0 34 1 0 34 0 1 34 1 1 34
          0 0 35 1 0 35 0 1 35 1 1 35
          0 0 36 1 0 36 0 1 36 1 1 36
          0 0 37 1 0 37 0 1 37 1 1 37
          0 0 38 1 0 38 0 1 38 1 1 38
          0 0 39 1 0 39 0 1 39 1 1 39
          0 0 40 1 0 40 0 1 40 1 1 40
          0 0 41 1 0 41 0 1 41 1 1 41
          0 0 42 1 0 42 0 1 42 1 1 42
          0 0 43 1 0 43 0 1 43 1 1 43
          0 0 44 1 0 44 0 1 44 1 1 44
          0 0 45 1 0 45 0 1 45 1 1 45
          0 0 46 1 0 46 0 1 46 1 1 46
          0 0 47 1 0 47 0 1 47 1 1 47
          0 0 48 1 0 48 0 1 48 1 1 48
          0 0 49 1 0 49 0 1 49 1 1 49
          0 0 50 1 0 50 0 1 50 1 1 50
          0 0 51 1 0 51 0 1 51 1 1 51
          0 0 52 1 0 52 0 1 52 1 1 52
          0 0 53 1 0 53 0 1 53 1 1 53
          0 0 54 1 0 54 0 1 54 1 1 54
          0 0 55 1 0 55 0 1 55 1 1 55
          0 0 56 1 0 56 0 1 56 1 1 56
          0 0 57 1 0 57 0 1 57 1 1 57
          0 0 58 1 0 58 0 1 58 1 1 58
          0 0 59 1 0 59 0 1 59 1 1 59
          0 0 60 1 0 60 0 1 60 1 1 60
          0 0 61 1 0 61 0 1 61 1 1 61
          0 0 62 1 0 62 0 1 62 1 1 62
          0 0 63 1 0 63 0 1 63 1 1 63
          0 0 64 1 0 64 0 1 64 1 1 64
          0 0 65 1 0 65 0 1 65 1 1 65
          0 0 66 1 0 66 0 1 66 1 1 66
          0 0 67 1 0 67 0 1 67 1 1 67
          0 0 68 1 0 68 0 1 68 1 1 68
          0 0 69 1 0 69 0 1 69 1 1 69
          0 0 70 1 0 70 0 1 70 1 1 70
          0 0 71 1 0 71 0 1 71 1 1 71
          0 0 72 1 0 72 0 1 72 1 1 72
          0 0 73 1 0 73 0 1 73 1 1 73
          0 0 74 1 0 74 0 1 74 1 1 74
          0 0 75 1 0 75 0 1 75 1 1 75
          0 0 76 1 0 76 0 1 76 1 1 76
          0 0 77 1 0 77 0 1 77 1 1 77
          0 0 78 1 0 78 0 1 78 1 1 78
          0 0 79 1 0 79 0 1 79 1 1 79
          0 0 80 1 0 80 0 1 80 1 1 80
          0 0 81 1 0 81 0 1 81 1 1 81
          0 0 82 1 0 82 0 1 82 1 1 82
          0 0 83 1 0 83 0 1 83 1 1 83
          0 0 84 1 0 84 0 1 84 1 1 84
          0 0 85 1 0 85 0 1 85 1 1 85
          0 0 86 1 0 86 0 1 86 1 1 86
          0 0 87 1 0 87 0 1 87 1 1 87
          0 0 88 1 0 88 0 1 88 1 1 88
          0 0 89 1 0 89 0 1 89 1 1 89
          0 0 90 1 0 90 0 1 90 1 1 90
          0 0 91 1 0 91 0 1 91 1 1 91
          0 0 92 1 0 92 0 1 92 1 1 92
          0 0 93 1 0 93 0 1 93 1 1 93
          0 0 94 1 0 94 0 1 94 1 1 94
          0 0 95 1 0 95 0 1 95 1 1 95
          0 0 96 1 0 96 0 1 96 1 1 96
          0 0 97 1 0 97 0 1 97 1 1 97
          0 0 98 1 0 98 0 1 98 1 1 98
          0 0 99 1 0 99 0 1 99 1 1 99
          0 0 100 1 0 100 0 1 100 1 1 100
        </DataArray>
      </Points>
      <Cells>
        <DataArray type="Int32" Name="connectivity" NumberOfComponents="1" format="ascii">
          0 1 3 2 4 5 7 6 4 5 7 6
          8 9 11 10 8 9 11 10 12 13 15 14
          12 13 15 14 16 17 19 18 16 17 19 18
          20 21 23 22 20 21 23 22 24 25 27 26
          24 25 27 26 28 29 31 30 28 29 31 30
          32 33 35 34 32 33 35 34 36 37 39 38
          36 37 39 38 40 41 43 42 40 41 43 42
          44 45 47 46 44 45 47 46 48 49 51 50
          48 49 51 50 52 53 55 54 52 53 55 54
          56 57 59 58 56 57 59 58 60 61 63 62
          60 61 63 62 64 65 67 66 64 65 67 66
          68 69 71 70 68 69 71 70 72 73 75 74
          72 73 75 74 76 77 79 78 76 77 79 78
          80 81 83 82 80 81 83 82 84 85 87 86
          84 85 87 86 88 89 91 90 88 89 91 90
          92 93 95 94 92 93 95 94 96 97 99 98
          96 97 99 98 100 101 103 102 100 101 103 102
          104 105 107 106 104 105 107 106 108 109 111 110
          108 109 111 110 112 113 115 114 112 113 115 114
          116 117 119 118 116 117 119 118 120 121 123 122
          120 121 123 122 124 125 127 126 124 125 127 126
          128 129 131 130 128 129 131 130 132 133 135 134
          132 133 135 134 136 137 139 138 136 137 139 138
          140 141 143 142 140 141 143 142 144 145 147 146
          144 145 147 146 148 149 151 150 148 149 151 150
          152 153 155 154 152 153 155 154 156 157 159 158
          156 157 159 158 160 161 163 162 160 161 163 162
          164 165 167 166 164 165 167 166 168 169 171 170
          168 169 171 170 172 173 175 174 172 173 175 174
          176 177 179 178 176 177 179 178 180 181 183 182
          180 181 183 182 184 185 187 186 184 185 187 186
          188 189 191 190 188 189 191 190 192 193 195 194
          192 193 195 194 196 197 199 198 196 197 199 198
          200 201 203 202 200 201 203 202 204 205 207 206
          204 205 207 206 208 209 211 210 208 209 211 210
          212 213 215 214 212 213 215 214 216 217 219 218
          216 217 219 218 220 221 223 222 220 221 223 222
          224 225 227 226 224 225 227 226 228 229 231 230
          228 229 231 230 232 233 235 234 232 233 235 234
          236 237 239 238 236 237 239 238 240 241 243 242
          240 241 243 242 244 245 247 246 244 245 247 246
          248 249 251 250 248 249 251 250 252 253 255 254
          252 253 255 254 256 257 259 258 256 257 259 258
          260 261 263 262 260 261 263 262 264 265 267 266
          264 265 267 266 268 269 271 270 268 269 271 270
          272 273 275 274 272 273 275 274 276 277 279 278
          276 277 279 278 280 281 283 282 280 281 283 282
          284 285 287 286 284 285 287 286 288 289 291 290
          288 289 291 290 292 293 295 294 292 293 295 294
          296 297 299 298 296 297 299 298 300 301 303 302
          300 301 303 302 304 305 307 306 304 305 307 306
          308 309 311 310 308 309 311 310 312 313 315 314
          312 313 315 314 316 317 319 318 316 317 319 318
          320 321 323 322 320 321 323 322 324 325 327 326
          324 325 327 326 328 329 331 330 328 329 331 330
          332 333 335 334 332 333 335 334 336 337 339 338
          336 337 339 338 340 341 343 342 340 341 343 342
          344 345 347 346 344 345 347 346 348 349 351 350
          348 349 351 350 352 353 355 354 352 353 355 354
          356 357 359 358 356 357 359 358 360 361 363 362
          360 361 363 362 364 365 367 366 364 365 367 366
          368 369 371 370 368 369 371 370 372 373 375 374
          372 373 375 374 376 377 379 378 376 377 379 378
          380 381 383 382 380 381 383 382 384 385 387 386
          384 385 387 386 388 389 391 390 388 389 391 390
          392 393 395 394 392 393 395 394 396 397 399 398
          396 397 399 398 400 401 403 402
        </DataArray>
        <DataArray type="Int32" Name="offsets" NumberOfComponents="1" format="ascii">
          8 16 24 32 40 48 56 64 72 80 88 96
          104 112 120 128 136 144 152 160 168 176 184 192
          200 208 216 224 232 240 248 256 264 272 280 288
          296 304 312 320 328 336 344 352 360 368 376 384
          392 400 408 416 424 432 440 448 456 464 472 480
          488 496 504 512 520 528 536 544 552 560 568 576
          584 592 600 608 616 624 632 640 648 656 664 672
          680 688 696 704 712 720 728 736 744 752 760 768
          776 784 792 800
        </DataArray>
        <DataArray type="UInt8" Name="types" NumberOfComponents="1" format="ascii">
          12 12 12 12 12 12 12 12 12 12 12 12
          12 12 12 12 12 12 12 12 12 12 12 12
          12 12 12 12 12 12 12 12 12 12 12 12
          12 12 12 12 12 12 12 12 12 12 12 12
          12 12 12 12 12 12 12 12 12 12 12 12
          12 12 12 12 12 12 12 12 12 12 12 12
          12 12 12 12 12 12 12 12 12 12 12 12
          12 12 12 12 12 12 12 12 12 12 12 12
          12 12 12 12
        </DataArray>
      </Cells>
    </Piece>
  </UnstructuredGrid>
</VTKFile>
