<?xml version="1.0"?>
<VTKFile type="UnstructuredGrid" version="0.1" byte_order="LittleEndian">
  <UnstructuredGrid>
    <Piece NumberOfCells="100" NumberOfPoints="404">
      <CellData Scalars="pressure[0]">
        <DataArray type="Float32" Name="pressure[0]" NumberOfComponents="1" format="ascii">
          5.65766e+06 5.65816e+06 5.65867e+06 5.65917e+06 5.65967e+06 5.66017e+06 5.66068e+06 5.66118e+06 5.66169e+06 5.66219e+06 5.6627e+06 5.6632e+06
          5.66371e+06 5.66422e+06 5.66473e+06 5.66524e+06 5.66574e+06 5.66625e+06 5.66676e+06 5.66728e+06 5.66779e+06 5.6683e+06 5.66881e+06 5.66932e+06
          5.66984e+06 5.67035e+06 5.67087e+06 5.67138e+06 5.6719e+06 5.67242e+06 5.673e+06 5.6745e+06 5.68019e+06 5.68627e+06 5.69234e+06 5.69838e+06
          5.7044e+06 5.71038e+06 5.7163e+06 5.72216e+06 5.72794e+06 5.73365e+06 5.73926e+06 5.74478e+06 5.7502e+06 5.75552e+06 5.76073e+06 5.76585e+06
          5.77086e+06 5.77576e+06 5.78056e+06 5.78525e+06 5.78984e+06 5.79433e+06 5.79871e+06 5.80299e+06 5.80716e+06 5.81124e+06 5.81521e+06 5.81908e+06
          5.82286e+06 5.82653e+06 5.83011e+06 5.83359e+06 5.83697e+06 5.84026e+06 5.84345e+06 5.84655e+06 5.84955e+06 5.85247e+06 5.85529e+06 5.85802e+06
          5.86067e+06 5.86322e+06 5.86569e+06 5.86808e+06 5.87103e+06 5.88129e+06 5.8915e+06 5.9017e+06 5.91188e+06 5.92188e+06 5.93177e+06 5.94164e+06
          5.95149e+06 5.96132e+06 5.97081e+06 5.98019e+06 5.98955e+06 5.99897e+06 6.00833e+06 6.01764e+06 6.02697e+06 6.0363e+06 6.04563e+06 6.05496e+06
          6.0643e+06 6.0736e+06 6.08288e+06 6.09245e+06
        </DataArray>
        <DataArray type="Float32" Name="pressure[1]" NumberOfComponents="1" format="ascii">
          5.65766e+06 5.65816e+06 5.65867e+06 5.65917e+06 5.65967e+06 5.66017e+06 5.66068e+06 5.66118e+06 5.66169e+06 5.66219e+06 5.6627e+06 5.6632e+06
          5.66371e+06 5.66422e+06 5.66473e+06 5.66524e+06 5.66574e+06 5.66625e+06 5.66676e+06 5.66728e+06 5.66779e+06 5.6683e+06 5.66881e+06 5.66932e+06
          5.66984e+06 5.67035e+06 5.67087e+06 5.67138e+06 5.6719e+06 5.67242e+06 5.673e+06 5.6745e+06 5.68019e+06 5.68627e+06 5.69234e+06 5.69838e+06
          5.7044e+06 5.71038e+06 5.7163e+06 5.72216e+06 5.72794e+06 5.73365e+06 5.73926e+06 5.74478e+06 5.7502e+06 5.75552e+06 5.76073e+06 5.76585e+06
          5.77086e+06 5.77576e+06 5.78056e+06 5.78525e+06 5.78984e+06 5.79433e+06 5.79871e+06 5.80299e+06 5.80716e+06 5.81124e+06 5.81521e+06 5.81908e+06
          5.82286e+06 5.82653e+06 5.83011e+06 5.83359e+06 5.83697e+06 5.84026e+06 5.84345e+06 5.84655e+06 5.84955e+06 5.85247e+06 5.85529e+06 5.85802e+06
          5.86067e+06 5.86322e+06 5.86569e+06 5.86808e+06 5.87103e+06 5.88129e+06 5.8915e+06 5.9017e+06 5.91188e+06 5.92188e+06 5.93177e+06 5.94164e+06
          5.95149e+06 5.96132e+06 5.97081e+06 5.98019e+06 5.98955e+06 5.99897e+06 6.00833e+06 6.01764e+06 6.02697e+06 6.0363e+06 6.04563e+06 6.05496e+06
          6.0643e+06 6.0736e+06 6.08288e+06 6.09245e+06
        </DataArray>
        <DataArray type="Float32" Name="pressure[2]" NumberOfComponents="1" format="ascii">
          5.65766e+06 5.65816e+06 5.65867e+06 5.65917e+06 5.65967e+06 5.66017e+06 5.66068e+06 5.66118e+06 5.66169e+06 5.66219e+06 5.6627e+06 5.6632e+06
          5.66371e+06 5.66422e+06 5.66473e+06 5.66524e+06 5.66574e+06 5.66625e+06 5.66676e+06 5.66728e+06 5.66779e+06 5.6683e+06 5.66881e+06 5.66932e+06
          5.66984e+06 5.67035e+06 5.67087e+06 5.67138e+06 5.6719e+06 5.67242e+06 5.673e+06 5.6745e+06 5.68019e+06 5.68627e+06 5.69234e+06 5.69838e+06
          5.7044e+06 5.71038e+06 5.7163e+06 5.72216e+06 5.72794e+06 5.73365e+06 5.73926e+06 5.74478e+06 5.7502e+06 5.75552e+06 5.76073e+06 5.76585e+06
          5.77086e+06 5.77576e+06 5.78056e+06 5.78525e+06 5.78984e+06 5.79433e+06 5.79871e+06 5.80299e+06 5.80716e+06 5.81124e+06 5.81521e+06 5.81908e+06
          5.82286e+06 5.82653e+06 5.83011e+06 5.83359e+06 5.83697e+06 5.84026e+06 5.84345e+06 5.84655e+06 5.84955e+06 5.85247e+06 5.85529e+06 5.85802e+06
          5.86067e+06 5.86322e+06 5.86569e+06 5.86808e+06 5.87103e+06 5.88129e+06 5.8915e+06 5.9017e+06 5.91188e+06 5.92188e+06 5.93177e+06 5.94164e+06
          5.95149e+06 5.96132e+06 5.97081e+06 5.98019e+06 5.98955e+06 5.99897e+06 6.00833e+06 6.01764e+06 6.02697e+06 6.0363e+06 6.04563e+06 6.05496e+06
          6.0643e+06 6.0736e+06 6.08288e+06 6.09245e+06
        </DataArray>
        <DataArray type="Float32" Name="velocity[0]" NumberOfComponents="1" format="ascii">
          0 0 0 0 0 0 0 0 0 0 0 0
          0 0 0 0 0 0 0 0 0 0 0 0
          0 0 0 0 0 0 0 0 0 0 0 0
          0 0 0 0 0 0 0 0 0 0 0 0
          0 0 0 0 0 0 0 0 0 0 0 0
          0 0 0 0 0 0 0 0 0 0 0 0
          0 0 0 0 0 0 0 0 0 0 0 0
          0 0 0 0 0 0 0 0 0 0 0 0
          0 0 0 0
        </DataArray>
        <DataArray type="Float32" Name="velocity[1]" NumberOfComponents="1" format="ascii">
          0 0 0 0 0 0 0 0 0 0 0 0
          0 0 0 0 0 0 0 0 0 0 0 0
          0 0 0 0 0 0 0 0 0 0 0 0
          0 0 0 0 0 0 0 0 0 0 0 0
          0 0 0 0 0 0 0 0 0 0 0 0
          0 0 0 0 0 0 0 0 0 0 0 0
          0 0 0 0 0 0 0 0 0 0 0 0
          0 0 0 0 0 0 0 0 0 0 0 0
          0 0 0 0
        </DataArray>
        <DataArray type="Float32" Name="velocity[2]" NumberOfComponents="1" format="ascii">
          -1.8796e-09 -5.63864e-09 -9.39732e-09 -1.31556e-08 -1.69136e-08 -2.06711e-08 -2.44283e-08 -2.81851e-08 -3.19414e-08 -3.56973e-08 -3.94528e-08 -4.32081e-08
          -4.69634e-08 -5.07182e-08 -5.44724e-08 -5.82262e-08 -6.19793e-08 -6.5732e-08 -6.94841e-08 -7.32356e-08 -7.69866e-08 -8.07369e-08 -8.44867e-08 -8.82358e-08
          -9.19843e-08 -9.57322e-08 -9.94795e-08 -1.03227e-07 -1.06977e-07 -1.10775e-07 -1.14025e-07 -1.1518e-07 -1.14534e-07 -1.13591e-07 -1.12653e-07 -1.11723e-07
          -1.10807e-07 -1.0991e-07 -1.09038e-07 -1.08195e-07 -1.07387e-07 -1.06615e-07 -1.05882e-07 -1.05188e-07 -1.04531e-07 -1.03912e-07 -1.03328e-07 -1.02777e-07
          -1.02255e-07 -1.01761e-07 -1.01291e-07 -1.00842e-07 -1.00412e-07 -9.99971e-08 -9.95945e-08 -9.92014e-08 -9.8815e-08 -9.84327e-08 -9.80519e-08 -9.76701e-08
          -9.7285e-08 -9.68943e-08 -9.64959e-08 -9.60879e-08 -9.56684e-08 -9.52357e-08 -9.47883e-08 -9.43248e-08 -9.38436e-08 -9.33438e-08 -9.28242e-08 -9.2284e-08
          -9.17222e-08 -9.11383e-08 -9.05315e-08 -8.9892e-08 -8.93731e-08 -8.72235e-08 -8.47752e-08 -8.39479e-08 -7.3334e-08 -5.74629e-08 -5.13352e-08 -4.98068e-08
          -4.78635e-08 -2.91332e-08 -5.27885e-09 6.44389e-10 -2.20805e-09 -2.83621e-09 1.28121e-09 2.52485e-09 1.40912e-09 8.43235e-10 1.59313e-10 -3.35938e-10
          -7.63098e-11 4.19239e-10 3.42913e-10 4.39946e-11
        </DataArray>
        <DataArray type="Float32" Name="z[0]" NumberOfComponents="1" format="ascii">
          0 0 0 0 0 0 0 0 0 0 0 0
          0 0 0 0 0 0 0 0 0 0 0 0
          5.0753e-08 7.03261e-07 8.54297e-06 9.72518e-05 0.00102003 0.0102367 0.101695 0.651609 0.967306 0.97456 0.971039 0.964608
          0.954655 0.940888 0.923503 0.903067 0.880319 0.856002 0.83077 0.805146 0.779526 0.754195 0.72935 0.705122
          0.681592 0.658806 0.636785 0.615531 0.595037 0.575286 0.556255 0.537919 0.520252 0.503226 0.486812 0.470984
          0.455715 0.440978 0.426751 0.413008 0.399727 0.386888 0.374469 0.362452 0.350819 0.339553 0.328637 0.318057
          0.3078 0.297903 0.29072 0.347554 0.337593 0.290831 0.282312 0.274227 0.266196 0.258562 0.251431 0.244515
          0.238114 0.231593 0.225652 0.218945 0.214871 0.211548 0.204794 0.201118 0.198881 0.194832 0.195006 0.192624
          0.190798 0.179945 0.171757 0.339618
        </DataArray>
        <DataArray type="Float32" Name="z[1]" NumberOfComponents="1" format="ascii">
          0 0 0 0 0 0 0 2.88322e-18 0 0 0 0
          0 0 0 0 0 0 0 0 0 0 0 0
          0 1.34207e-17 9.92787e-09 1.28143e-07 1.20259e-06 9.80753e-06 7.09484e-05 0.000377373 0.00109145 0.00279019 0.00630889 0.0125223
          0.0221295 0.0354072 0.0521555 0.0718205 0.093684 0.117024 0.141209 0.165733 0.190213 0.214375 0.238029 0.261049
          0.283356 0.304905 0.325677 0.345667 0.364883 0.38334 0.401058 0.41806 0.434369 0.450011 0.46501 0.479388
          0.49317 0.506377 0.519027 0.531141 0.542733 0.55382 0.564414 0.574528 0.58417 0.593348 0.602068 0.610333
          0.618146 0.625554 0.634881 0.709215 0.721622 0.690545 0.698754 0.706759 0.714753 0.721936 0.728822 0.73563
          0.74204 0.748891 0.755285 0.762241 0.764676 0.768385 0.776614 0.779444 0.780687 0.785319 0.784155 0.786896
          0.788771 0.800486 0.807898 0.644326
        </DataArray>
        <DataArray type="Float32" Name="z[2]" NumberOfComponents="1" format="ascii">
          67.0432 67.0491 67.0551 67.0611 67.067 67.073 67.079 67.085 67.091 67.097 67.103 67.109
          67.115 67.1211 67.1271 67.1331 67.1392 67.1453 67.1513 67.1574 67.1635 67.1696 67.1757 67.1817
          67.1879 67.1939 67.1995 67.1997 67.1437 66.5301 60.3862 23.4282 2.19214 1.69275 1.9049 2.29321
          2.89402 3.7257 4.77708 6.01469 7.39448 8.87185 10.4075 11.9699 13.535 15.0854 16.609 18.0978
          19.5466 20.9525 22.314 23.6307 24.903 26.1319 27.3183 28.4639 29.57 30.6383 31.6703 32.6677
          33.632 34.5646 35.4671 36.3408 37.1871 38.0073 38.8024 39.5738 40.3225 41.0497 41.7562 42.4431
          43.1111 43.7573 44.1992 39.5731 40.36 43.7204 44.3211 44.8128 44.9422 45.6318 46.2815 46.6958
          47.0084 46.7475 46.097 45.2159 47.8879 48.152 45.7012 46.4833 48.5006 47.6226 49.2452 48.9201
          49.0992 47.729 48.9787 38.8825
        </DataArray>
        <DataArray type="Float32" Name="sat[0]" NumberOfComponents="1" format="ascii">
          0 0 0 0 0 0 0 0 0 0 0 0
          0 0 0 0 0 0 0 0 0 0 0 0
          5.0753e-08 7.03261e-07 8.54297e-06 9.72518e-05 0.00102003 0.0102367 0.101698 0.651568 0.967308 0.974559 0.971038 0.964606
          0.954653 0.940886 0.923501 0.903065 0.880316 0.855999 0.830767 0.805143 0.779523 0.754193 0.729348 0.70512
          0.68159 0.658804 0.636783 0.61553 0.595036 0.575285 0.556254 0.537918 0.520251 0.503225 0.486811 0.470983
          0.455714 0.440978 0.42675 0.413007 0.399727 0.386887 0.374469 0.362452 0.350819 0.339553 0.328637 0.318057
          0.3078 0.297903 0.290721 0.323967 0.313869 0.290822 0.282318 0.2742 0.266184 0.258585 0.25144 0.244511
          0.238083 0.231539 0.225599 0.218968 0.214921 0.211493 0.204751 0.201159 0.198894 0.19484 0.195025 0.192617
          0.190768 0.179926 0.171764 0.33961
        </DataArray>
        <DataArray type="Float32" Name="sat[1]" NumberOfComponents="1" format="ascii">
          0 0 0 0 0 0 0 2.95862e-18 0 0 0 0
          0 0 0 0 0 0 0 0 0 0 0 0
          0 1.37722e-17 1.01879e-08 1.31499e-07 1.2341e-06 1.00645e-05 7.28099e-05 0.00038724 0.00112009 0.00286347 0.00647475 0.0128518
          0.0227125 0.0363408 0.0535321 0.0737181 0.0961616 0.120122 0.144951 0.170128 0.195263 0.220071 0.244359 0.267997
          0.290904 0.313034 0.334367 0.354898 0.374635 0.393593 0.411793 0.429258 0.446012 0.462081 0.47749 0.492264
          0.506424 0.519994 0.532993 0.545441 0.557354 0.568747 0.579636 0.59003 0.59994 0.609374 0.618337 0.626833
          0.634864 0.64248 0.652067 0.676033 0.686131 0.709178 0.717682 0.7258 0.733816 0.741415 0.74856 0.755489
          0.761917 0.768461 0.774401 0.781032 0.785079 0.788507 0.795249 0.798841 0.801106 0.80516 0.804975 0.807383
          0.809232 0.820073 0.828236 0.66039
        </DataArray>
        <DataArray type="Float32" Name="sat[2]" NumberOfComponents="1" format="ascii">
          1 1 1 1 1 1 1 1 1 1 1 1
          1 1 1 1 1 1 1 1 1 1 1 1
          1 0.999999 0.999991 0.999903 0.998979 0.989753 0.898229 0.348044 0.0315722 0.0225771 0.0224868 0.0225418
          0.0226342 0.0227736 0.0229672 0.0232173 0.0235224 0.0238789 0.0242823 0.0247286 0.0252141 0.0257362 0.0262929 0.0268829
          0.0275058 0.0281614 0.0288499 0.0295722 0.0303293 0.0311225 0.0319535 0.0328243 0.033737 0.0346941 0.0356985 0.0367532
          0.0378619 0.0390283 0.0402568 0.0415521 0.0429196 0.0443653 0.0458956 0.047518 0.0492408 0.0510733 0.0530258 0.0551102
          0.057336 0.0596163 0.0572117 0 0 0 0 0 0 0 0 0
          0 0 0 0 0 0 0 0 0 0 0 0
          0 0 0 0
        </DataArray>
        <DataArray type="Float32" Name="massFrac[0]" NumberOfComponents="1" format="ascii">
          0 0 0 0 0 0 0 0 0 0 0 0
          0 0 0 0 0 0 0 0 0 0 0 0
          1.03035e-06 1.42756e-05 0.000173372 0.00197009 0.0203003 0.173441 0.696412 0.973851 0.997387 0.99631 0.993094 0.987397
          0.978568 0.966324 0.950808 0.932489 0.91199 0.889951 0.86694 0.843422 0.819752 0.796197 0.772945 0.750126
          0.727828 0.706106 0.684991 0.664501 0.644636 0.625394 0.606763 0.588729 0.571276 0.554384 0.538035 0.522209
          0.506888 0.492052 0.477683 0.463763 0.450276 0.437204 0.424534 0.41225 0.400338 0.388787 0.377583 0.366717
          0.356177 0.34598 0.337223 0.355137 0.344554 0.319906 0.310915 0.302319 0.293838 0.285736 0.278105 0.270704
          0.263831 0.25686 0.250547 0.243491 0.238973 0.235272 0.228158 0.224237 0.22167 0.217341 0.217444 0.214858
          0.212846 0.201168 0.192225 0.371119
        </DataArray>
        <DataArray type="Float32" Name="massFrac[1]" NumberOfComponents="1" format="ascii">
          0 0 0 0 0 0 0 4.97671e-17 0 0 0 0
          0 0 0 0 0 0 0 0 0 0 0 0
          0 2.31275e-16 1.71043e-07 2.20373e-06 2.03182e-05 0.000141069 0.000412466 0.000478799 0.000955389 0.00242157 0.00547752 0.0108819
          0.0192572 0.0308712 0.045586 0.0629577 0.0823934 0.103286 0.125097 0.147386 0.169813 0.192127 0.214151 0.235759
          0.25687 0.27743 0.297411 0.316797 0.335584 0.353779 0.37139 0.388431 0.404919 0.42087 0.436303 0.451236
          0.465686 0.479672 0.493211 0.50632 0.519013 0.531307 0.543215 0.554751 0.565927 0.576754 0.587244 0.597406
          0.607248 0.616763 0.625189 0.615217 0.625246 0.644837 0.6533 0.661461 0.669791 0.677293 0.684365 0.691394
          0.697983 0.705128 0.711929 0.719643 0.721981 0.725467 0.734514 0.737767 0.738698 0.743712 0.742298 0.745137
          0.746998 0.759713 0.767588 0.59773
        </DataArray>
        <DataArray type="Float32" Name="massFrac[2]" NumberOfComponents="1" format="ascii">
          1 1 1 1 1 1 1 1 1 1 1 1
          1 1 1 1 1 1 1 1 1 1 1 1
          0.999999 0.999986 0.999826 0.998028 0.979679 0.826418 0.303175 0.0256704 0.00165713 0.00126872 0.00142828 0.00172096
          0.00217487 0.0028053 0.00360582 0.00455328 0.00561624 0.00676228 0.00796239 0.00919279 0.0104351 0.0116756 0.0129045 0.014115
          0.0153025 0.016464 0.0175977 0.0187029 0.0197793 0.0208271 0.0218468 0.0228392 0.0238051 0.0247457 0.0256619 0.0265549
          0.0274258 0.0282757 0.0291058 0.0299172 0.0307111 0.0314886 0.032251 0.0329993 0.0337349 0.0344589 0.0351726 0.0358773
          0.0365742 0.0372575 0.0375875 0.0296456 0.0301997 0.0352575 0.0357856 0.0362198 0.0363704 0.0369705 0.0375304 0.0379013
          0.0381859 0.0380118 0.037524 0.0368661 0.0390466 0.0392612 0.0373278 0.0379963 0.0396321 0.0389477 0.0402578 0.0400052
          0.0401562 0.0391191 0.0401873 0.0311505
        </DataArray>
        <DataArray type="Float32" Name="total fl. vol." NumberOfComponents="1" format="ascii">
          1 1 1 1 1 1 1 1 1 1 1 1
          1 1 1 1 1 1 1 1 1 1 1 1
          1 1 1 1 1 0.999995 0.999966 1.00006 0.999998 1 1 1
          1 1 1 1 1 1 1 1 1 1 1 1
          1 1 1 1 1 1 1 1 1 1 1 1
          1 1 1 1 1 1 1 1 1 1 1 1
          1 0.999999 0.999998 1.07281 1.07559 1.00003 0.99998 1.0001 1.00004 0.999911 0.999963 1.00002
          1.00013 1.00023 1.00024 0.999894 0.999766 1.00026 1.00021 0.999793 0.999937 0.999957 0.999902 1.00003
          1.00016 1.0001 0.999961 1.00002
        </DataArray>
      </CellData>
      <Points>
        <DataArray type="Float32" Name="Coordinates" NumberOfComponents="3" format="ascii">
          0 0 0 1 0 0 0 1 0 1 1 0
          0 0 1 1 0 1 0 1 1 1 1 1
          0 0 2 1 0 2 0 1 2 1 1 2
          0 0 3 1 0 3 0 1 3 1 1 3
          0 0 4 1 0 4 0 1 4 1 1 4
          0 0 5 1 0 5 0 1 5 1 1 5
          0 0 6 1 0 6 0 1 6 1 1 6
          0 0 7 1 0 7 0 1 7 1 1 7
          0 0 8 1 0 8 0 1 8 1 1 8
          0 0 9 1 0 9 0 1 9 1 1 9
          0 0 10 1 0 10 0 1 10 1 1 10
          0 0 11 1 0 11 0 1 11 1 1 11
          0 0 12 1 0 12 0 1 12 1 1 12
          0 0 13 1 0 13 0 1 13 1 1 13
          0 0 14 1 0 14 0 1 14 1 1 14
          0 0 15 1 0 15 0 1 15 1 1 15
          0 0 16 1 0 16 0 1 16 1 1 16
          0 0 17 1 0 17 0 1 17 1 1 17
          0 0 18 1 0 18 0 1 18 1 1 18
          0 0 19 1 0 19 0 1 19 1 1 19
          0 0 20 1 0 20 0 1 20 1 1 20
          0 0 21 1 0 21 0 1 21 1 1 21
          0 0 22 1 0 22 0 1 22 1 1 22
          0 0 23 1 0 23 0 1 23 1 1 23
          0 0 24 1 0 24 0 1 24 1 1 24
          0 0 25 1 0 25 0 1 25 1 1 25
          0 0 26 1 0 26 0 1 26 1 1 26
          0 0 27 1 0 27 0 1 27 1 1 27
          0 0 28 1 0 28 0 1 28 1 1 28
          0 0 29 1 0 29 0 1 29 1 1 29
          0 0 30 1 0 30 0 1 30 1 1 30
          0 0 31 1 0 31 0 1 31 1 1 31
          0 0 32 1 0 32 0 1 32 1 1 32
          0 0 33 1 0 33 0 1 33 1 1 33
          0 0 34 1 0 34 0 1 34 1 1 34
          0 0 35 1 0 35 0 1 35 1 1 35
          0 0 36 1 0 36 0 1 36 1 1 36
          0 0 37 1 0 37 0 1 37 1 1 37
          0 0 38 1 0 38 0 1 38 1 1 38
          0 0 39 1 0 39 0 1 39 1 1 39
          0 0 40 1 0 40 0 1 40 1 1 40
          0 0 41 1 0 41 0 1 41 1 1 41
          0 0 42 1 0 42 0 1 42 1 1 42
          0 0 43 1 0 43 0 1 43 1 1 43
          0 0 44 1 0 44 0 1 44 1 1 44
          0 0 45 1 0 45 0 1 45 1 1 45
          0 0 46 1 0 46 0 1 46 1 1 46
          0 0 47 1 0 47 0 1 47 1 1 47
          0 0 48 1 0 48 0 1 48 1 1 48
          0 0 49 1 0 49 0 1 49 1 1 49
          0 0 50 1 0 50 0 1 50 1 1 50
          0 0 51 1 0 51 0 1 51 1 1 51
          0 0 52 1 0 52 0 1 52 1 1 52
          0 0 53 1 0 53 0 1 53 1 1 53
          0 0 54 1 0 54 0 1 54 1 1 54
          0 0 55 1 0 55 0 1 55 1 1 55
          0 0 56 1 0 56 0 1 56 1 1 56
          0 0 57 1 0 57 0 1 57 1 1 57
          0 0 58 1 0 58 0 1 58 1 1 58
          0 0 59 1 0 59 0 1 59 1 1 59
          0 0 60 1 0 60 0 1 60 1 1 60
          0 0 61 1 0 61 0 1 61 1 1 61
          0 0 62 1 0 62 0 1 62 1 1 62
          0 0 63 1 0 63 0 1 63 1 1 63
          0 0 64 1 0 64 0 1 64 1 1 64
          0 0 65 1 0 65 0 1 65 1 1 65
          0 0 66 1 0 66 0 1 66 1 1 66
          0 0 67 1 0 67 0 1 67 1 1 67
          0 0 68 1 0 68 0 1 68 1 1 68
          0 0 69 1 0 69 0 1 69 1 1 69
          0 0 70 1 0 70 0 1 70 1 1 70
          0 0 71 1 0 71 0 1 71 1 1 71
          0 0 72 1 0 72 0 1 72 1 1 72
          0 0 73 1 0 73 0 1 73 1 1 73
          0 0 74 1 0 74 0 1 74 1 1 74
          0 0 75 1 0 75 0 1 75 1 1 75
          0 0 76 1 0 76 0 1 76 1 1 76
          0 0 77 1 0 77 0 1 77 1 1 77
          0 0 78 1 0 78 0 1 78 1 1 78
          0 0 79 1 0 79 0 1 79 1 1 79
          0 0 80 1 0 80 0 1 80 1 1 80
          0 0 81 1 0 81 0 1 81 1 1 81
          0 0 82 1 0 82 0 1 82 1 1 82
          0 0 83 1 0 83 0 1 83 1 1 83
          0 0 84 1 0 84 0 1 84 1 1 84
          0 0 85 1 0 85 0 1 85 1 1 85
          0 0 86 1 0 86 0 1 86 1 1 86
          0 0 87 1 0 87 0 1 87 1 1 87
          0 0 88 1 0 88 0 1 88 1 1 88
          0 0 89 1 0 89 0 1 89 1 1 89
          0 0 90 1 0 90 0 1 90 1 1 90
          0 0 91 1 0 91 0 1 91 1 1 91
          0 0 92 1 0 92 0 1 92 1 1 92
          0 0 93 1 0 93 0 1 93 1 1 93
          0 0 94 1 0 94 0 1 94 1 1 94
          0 0 95 1 0 95 0 1 95 1 1 95
          0 0 96 1 0 96 0 1 96 1 1 96
          0 0 97 1 0 97 0 1 97 1 1 97
          0 0 98 1 0 98 0 1 98 1 1 98
          0 0 99 1 0 99 0 1 99 1 1 99
          0 0 100 1 0 100 0 1 100 1 1 100
        </DataArray>
      </Points>
      <Cells>
        <DataArray type="Int32" Name="connectivity" NumberOfComponents="1" format="ascii">
          0 1 3 2 4 5 7 6 4 5 7 6
          8 9 11 10 8 9 11 10 12 13 15 14
          12 13 15 14 16 17 19 18 16 17 19 18
          20 21 23 22 20 21 23 22 24 25 27 26
          24 25 27 26 28 29 31 30 28 29 31 30
          32 33 35 34 32 33 35 34 36 37 39 38
          36 37 39 38 40 41 43 42 40 41 43 42
          44 45 47 46 44 45 47 46 48 49 51 50
          48 49 51 50 52 53 55 54 52 53 55 54
          56 57 59 58 56 57 59 58 60 61 63 62
          60 61 63 62 64 65 67 66 64 65 67 66
          68 69 71 70 68 69 71 70 72 73 75 74
          72 73 75 74 76 77 79 78 76 77 79 78
          80 81 83 82 80 81 83 82 84 85 87 86
          84 85 87 86 88 89 91 90 88 89 91 90
          92 93 95 94 92 93 95 94 96 97 99 98
          96 97 99 98 100 101 103 102 100 101 103 102
          104 105 107 106 104 105 107 106 108 109 111 110
          108 109 111 110 112 113 115 114 112 113 115 114
          116 117 119 118 116 117 119 118 120 121 123 122
          120 121 123 122 124 125 127 126 124 125 127 126
          128 129 131 130 128 129 131 130 132 133 135 134
          132 133 135 134 136 137 139 138 136 137 139 138
          140 141 143 142 140 141 143 142 144 145 147 146
          144 145 147 146 148 149 151 150 148 149 151 150
          152 153 155 154 152 153 155 154 156 157 159 158
          156 157 159 158 160 161 163 162 160 161 163 162
          164 165 167 166 164 165 167 166 168 169 171 170
          168 169 171 170 172 173 175 174 172 173 175 174
          176 177 179 178 176 177 179 178 180 181 183 182
          180 181 183 182 184 185 187 186 184 185 187 186
          188 189 191 190 188 189 191 190 192 193 195 194
          192 193 195 194 196 197 199 198 196 197 199 198
          200 201 203 202 200 201 203 202 204 205 207 206
          204 205 207 206 208 209 211 210 208 209 211 210
          212 213 215 214 212 213 215 214 216 217 219 218
          216 217 219 218 220 221 223 222 220 221 223 222
          224 225 227 226 224 225 227 226 228 229 231 230
          228 229 231 230 232 233 235 234 232 233 235 234
          236 237 239 238 236 237 239 238 240 241 243 242
          240 241 243 242 244 245 247 246 244 245 247 246
          248 249 251 250 248 249 251 250 252 253 255 254
          252 253 255 254 256 257 259 258 256 257 259 258
          260 261 263 262 260 261 263 262 264 265 267 266
          264 265 267 266 268 269 271 270 268 269 271 270
          272 273 275 274 272 273 275 274 276 277 279 278
          276 277 279 278 280 281 283 282 280 281 283 282
          284 285 287 286 284 285 287 286 288 289 291 290
          288 289 291 290 292 293 295 294 292 293 295 294
          296 297 299 298 296 297 299 298 300 301 303 302
          300 301 303 302 304 305 307 306 304 305 307 306
          308 309 311 310 308 309 311 310 312 313 315 314
          312 313 315 314 316 317 319 318 316 317 319 318
          320 321 323 322 320 321 323 322 324 325 327 326
          324 325 327 326 328 329 331 330 328 329 331 330
          332 333 335 334 332 333 335 334 336 337 339 338
          336 337 339 338 340 341 343 342 340 341 343 342
          344 345 347 346 344 345 347 346 348 349 351 350
          348 349 351 350 352 353 355 354 352 353 355 354
          356 357 359 358 356 357 359 358 360 361 363 362
          360 361 363 362 364 365 367 366 364 365 367 366
          368 369 371 370 368 369 371 370 372 373 375 374
          372 373 375 374 376 377 379 378 376 377 379 378
          380 381 383 382 380 381 383 382 384 385 387 386
          384 385 387 386 388 389 391 390 388 389 391 390
          392 393 395 394 392 393 395 394 396 397 399 398
          396 397 399 398 400 401 403 402
        </DataArray>
        <DataArray type="Int32" Name="offsets" NumberOfComponents="1" format="ascii">
          8 16 24 32 40 48 56 64 72 80 88 96
          104 112 120 128 136 144 152 160 168 176 184 192
          200 208 216 224 232 240 248 256 264 272 280 288
          296 304 312 320 328 336 344 352 360 368 376 384
          392 400 408 416 424 432 440 448 456 464 472 480
          488 496 504 512 520 528 536 544 552 560 568 576
          584 592 600 608 616 624 632 640 648 656 664 672
          680 688 696 704 712 720 728 736 744 752 760 768
          776 784 792 800
        </DataArray>
        <DataArray type="UInt8" Name="types" NumberOfComponents="1" format="ascii">
          12 12 12 12 12 12 12 12 12 12 12 12
          12 12 12 12 12 12 12 12 12 12 12 12
          12 12 12 12 12 12 12 12 12 12 12 12
          12 12 12 12 12 12 12 12 12 12 12 12
          12 12 12 12 12 12 12 12 12 12 12 12
          12 12 12 12 12 12 12 12 12 12 12 12
          12 12 12 12 12 12 12 12 12 12 12 12
          12 12 12 12 12 12 12 12 12 12 12 12
          12 12 12 12
        </DataArray>
      </Cells>
    </Piece>
  </UnstructuredGrid>
</VTKFile>
