<?xml version="1.0"?>
<VTKFile type="UnstructuredGrid" version="0.1" byte_order="LittleEndian">
  <UnstructuredGrid>
    <Piece NumberOfCells="100" NumberOfPoints="404">
      <CellData Scalars="pressure[0]">
        <DataArray type="Float32" Name="pressure[0]" NumberOfComponents="1" format="ascii">
          5.7673e+06 5.76781e+06 5.76832e+06 5.76883e+06 5.76934e+06 5.76985e+06 5.77036e+06 5.77088e+06 5.77139e+06 5.7719e+06 5.77241e+06 5.77292e+06
          5.77343e+06 5.77394e+06 5.77445e+06 5.77496e+06 5.77547e+06 5.77598e+06 5.77649e+06 5.777e+06 5.77751e+06 5.77802e+06 5.77854e+06 5.77905e+06
          5.77956e+06 5.78007e+06 5.78058e+06 5.78109e+06 5.7816e+06 5.78211e+06 5.78263e+06 5.78314e+06 5.78372e+06 5.79258e+06 5.80144e+06 5.8103e+06
          5.81917e+06 5.82804e+06 5.83691e+06 5.84578e+06 5.85465e+06 5.86353e+06 5.87241e+06 5.88168e+06 5.89143e+06 5.90124e+06 5.91105e+06 5.92085e+06
          5.93064e+06 5.94042e+06 5.9502e+06 5.95997e+06 5.96973e+06 5.97949e+06 5.98923e+06 5.99898e+06 6.00871e+06 6.01844e+06 6.02816e+06 6.03787e+06
          6.04758e+06 6.05728e+06 6.06698e+06 6.07666e+06 6.08634e+06 6.09602e+06 6.10569e+06 6.11535e+06 6.125e+06 6.13465e+06 6.14428e+06 6.15392e+06
          6.16354e+06 6.17316e+06 6.18277e+06 6.19238e+06 6.20198e+06 6.21157e+06 6.22116e+06 6.23074e+06 6.24032e+06 6.24989e+06 6.25951e+06 6.26932e+06
          6.27938e+06 6.28953e+06 6.29971e+06 6.30989e+06 6.32007e+06 6.33025e+06 6.34043e+06 6.35061e+06 6.36078e+06 6.37096e+06 6.38114e+06 6.39132e+06
          6.4015e+06 6.41168e+06 6.42186e+06 6.43204e+06
        </DataArray>
        <DataArray type="Float32" Name="pressure[1]" NumberOfComponents="1" format="ascii">
          5.7673e+06 5.76781e+06 5.76832e+06 5.76883e+06 5.76934e+06 5.76985e+06 5.77036e+06 5.77088e+06 5.77139e+06 5.7719e+06 5.77241e+06 5.77292e+06
          5.77343e+06 5.77394e+06 5.77445e+06 5.77496e+06 5.77547e+06 5.77598e+06 5.77649e+06 5.777e+06 5.77751e+06 5.77802e+06 5.77854e+06 5.77905e+06
          5.77956e+06 5.78007e+06 5.78058e+06 5.78109e+06 5.7816e+06 5.78211e+06 5.78263e+06 5.78314e+06 5.78372e+06 5.79258e+06 5.80144e+06 5.8103e+06
          5.81917e+06 5.82804e+06 5.83691e+06 5.84578e+06 5.85465e+06 5.86353e+06 5.87241e+06 5.88168e+06 5.89143e+06 5.90124e+06 5.91105e+06 5.92085e+06
          5.93064e+06 5.94042e+06 5.9502e+06 5.95997e+06 5.96973e+06 5.97949e+06 5.98923e+06 5.99898e+06 6.00871e+06 6.01844e+06 6.02816e+06 6.03787e+06
          6.04758e+06 6.05728e+06 6.06698e+06 6.07666e+06 6.08634e+06 6.09602e+06 6.10569e+06 6.11535e+06 6.125e+06 6.13465e+06 6.14428e+06 6.15392e+06
          6.16354e+06 6.17316e+06 6.18277e+06 6.19238e+06 6.20198e+06 6.21157e+06 6.22116e+06 6.23074e+06 6.24032e+06 6.24989e+06 6.25951e+06 6.26932e+06
          6.27938e+06 6.28953e+06 6.29971e+06 6.30989e+06 6.32007e+06 6.33025e+06 6.34043e+06 6.35061e+06 6.36078e+06 6.37096e+06 6.38114e+06 6.39132e+06
          6.4015e+06 6.41168e+06 6.42186e+06 6.43204e+06
        </DataArray>
        <DataArray type="Float32" Name="pressure[2]" NumberOfComponents="1" format="ascii">
          5.7673e+06 5.76781e+06 5.76832e+06 5.76883e+06 5.76934e+06 5.76985e+06 5.77036e+06 5.77088e+06 5.77139e+06 5.7719e+06 5.77241e+06 5.77292e+06
          5.77343e+06 5.77394e+06 5.77445e+06 5.77496e+06 5.77547e+06 5.77598e+06 5.77649e+06 5.777e+06 5.77751e+06 5.77802e+06 5.77854e+06 5.77905e+06
          5.77956e+06 5.78007e+06 5.78058e+06 5.78109e+06 5.7816e+06 5.78211e+06 5.78263e+06 5.78314e+06 5.78372e+06 5.79258e+06 5.80144e+06 5.8103e+06
          5.81917e+06 5.82804e+06 5.83691e+06 5.84578e+06 5.85465e+06 5.86353e+06 5.87241e+06 5.88168e+06 5.89143e+06 5.90124e+06 5.91105e+06 5.92085e+06
          5.93064e+06 5.94042e+06 5.9502e+06 5.95997e+06 5.96973e+06 5.97949e+06 5.98923e+06 5.99898e+06 6.00871e+06 6.01844e+06 6.02816e+06 6.03787e+06
          6.04758e+06 6.05728e+06 6.06698e+06 6.07666e+06 6.08634e+06 6.09602e+06 6.10569e+06 6.11535e+06 6.125e+06 6.13465e+06 6.14428e+06 6.15392e+06
          6.16354e+06 6.17316e+06 6.18277e+06 6.19238e+06 6.20198e+06 6.21157e+06 6.22116e+06 6.23074e+06 6.24032e+06 6.24989e+06 6.25951e+06 6.26932e+06
          6.27938e+06 6.28953e+06 6.29971e+06 6.30989e+06 6.32007e+06 6.33025e+06 6.34043e+06 6.35061e+06 6.36078e+06 6.37096e+06 6.38114e+06 6.39132e+06
          6.4015e+06 6.41168e+06 6.42186e+06 6.43204e+06
        </DataArray>
        <DataArray type="Float32" Name="velocity[0]" NumberOfComponents="1" format="ascii">
          0 0 0 0 0 0 0 0 0 0 0 0
          0 0 0 0 0 0 0 0 0 0 0 0
          0 0 0 0 0 0 0 0 0 0 0 0
          0 0 0 0 0 0 0 0 0 0 0 0
          0 0 0 0 0 0 0 0 0 0 0 0
          0 0 0 0 0 0 0 0 0 0 0 0
          0 0 0 0 0 0 0 0 0 0 0 0
          0 0 0 0 0 0 0 0 0 0 0 0
          0 0 0 0
        </DataArray>
        <DataArray type="Float32" Name="velocity[1]" NumberOfComponents="1" format="ascii">
          0 0 0 0 0 0 0 0 0 0 0 0
          0 0 0 0 0 0 0 0 0 0 0 0
          0 0 0 0 0 0 0 0 0 0 0 0
          0 0 0 0 0 0 0 0 0 0 0 0
          0 0 0 0 0 0 0 0 0 0 0 0
          0 0 0 0 0 0 0 0 0 0 0 0
          0 0 0 0 0 0 0 0 0 0 0 0
          0 0 0 0 0 0 0 0 0 0 0 0
          0 0 0 0
        </DataArray>
        <DataArray type="Float32" Name="velocity[2]" NumberOfComponents="1" format="ascii">
          -9.49515e-13 -2.84844e-12 -4.7472e-12 -6.64578e-12 -8.54418e-12 -1.04424e-11 -1.23405e-11 -1.42383e-11 -1.6136e-11 -1.80335e-11 -1.99308e-11 -2.18279e-11
          -2.37248e-11 -2.56216e-11 -2.75181e-11 -2.94145e-11 -3.13106e-11 -3.32065e-11 -3.51022e-11 -3.69978e-11 -3.88931e-11 -4.07882e-11 -4.2683e-11 -4.45777e-11
          -4.64722e-11 -4.83664e-11 -5.02604e-11 -5.21542e-11 -5.40478e-11 -5.59411e-11 -5.78342e-11 -5.56332e-11 -5.71811e-11 -6.13642e-11 -6.10464e-11 -6.13723e-11
          -6.16136e-11 -6.17997e-11 -6.19058e-11 -6.19277e-11 -6.18645e-11 -5.85924e-11 -4.96219e-11 -3.69043e-11 -2.82485e-11 -2.5148e-11 -2.32333e-11 -2.28013e-11
          -2.30476e-11 -2.29669e-11 -2.16013e-11 -1.83036e-11 -1.2948e-11 -6.01341e-12 1.49125e-12 8.24795e-12 1.29386e-11 1.45585e-11 1.26478e-11 7.38292e-12
          -4.8952e-13 -9.84185e-12 -1.94132e-11 -2.8043e-11 -3.48373e-11 -3.92477e-11 -4.10732e-11 -4.04157e-11 -3.76141e-11 -3.31761e-11 -2.77147e-11 -2.18867e-11
          -1.63354e-11 -1.16322e-11 -8.21879e-12 -6.3456e-12 -6.01472e-12 -6.94261e-12 -8.57102e-12 -1.01521e-11 -1.09171e-11 -1.03005e-11 -7.99946e-12 -4.83845e-12
          -2.13259e-12 -5.93813e-13 -1.14943e-13 -1.88757e-14 -2.51239e-15 -5.61457e-17 1.00118e-16 -6.11194e-17 -6.19696e-17 -5.28508e-19 -6.06084e-19 -6.34945e-19
          -7.12337e-19 -9.10504e-19 -8.1859e-19 -2.49823e-19
        </DataArray>
        <DataArray type="Float32" Name="z[0]" NumberOfComponents="1" format="ascii">
          0 0 0 0 0 0 0 0 0 0 0 0
          0 0 0 0 0 0 0 0 0 0 0 0
          0 0 0 0 0 0 0 0 0 0 0 0
          0 0 0 0 2.06095e-08 4.67017e-06 0.000809676 0.0720273 0.409726 0.520056 0.522717 0.516455
          0.509706 0.503023 0.496436 0.489948 0.483564 0.477294 0.471151 0.465144 0.459275 0.453536 0.447912 0.442378
          0.43691 0.431484 0.426081 0.420691 0.415311 0.409946 0.404606 0.399303 0.394052 0.388866 0.383755 0.37873
          0.373794 0.368951 0.364197 0.359528 0.354936 0.350415 0.345981 0.341783 0.338832 0.343566 0.392612 0.595067
          0.868783 0.975227 0.996082 0.999435 0.999925 0.999991 0.999999 1 1 1 1 1
          1 1 1 1
        </DataArray>
        <DataArray type="Float32" Name="z[1]" NumberOfComponents="1" format="ascii">
          0 0 0 0 0 0 0 2.88322e-18 0 0 0 0
          0 0 0 0 0 0 0 0 0 0 0 0
          0 0 2.95029e-17 0 0 0 0 0 0.386883 0.978235 0.976571 0.975656
          0.97494 0.974372 0.974101 0.974126 0.974341 0.974613 0.974154 0.90487 0.575534 0.467905 0.465292 0.471399
          0.477992 0.484522 0.490944 0.497247 0.503415 0.509439 0.515316 0.521051 0.526663 0.532178 0.537628 0.543042
          0.548443 0.553847 0.559257 0.564667 0.570065 0.575432 0.580749 0.585999 0.591166 0.596238 0.60121 0.60608
          0.610851 0.615532 0.620134 0.624671 0.629155 0.633594 0.637969 0.642123 0.645057 0.640479 0.592642 0.395112
          0.128045 0.0241769 0.00382445 0.000551881 7.31705e-05 8.86828e-06 9.71806e-07 9.26394e-08 0 0 0 0
          0 0 0 0
        </DataArray>
        <DataArray type="Float32" Name="z[2]" NumberOfComponents="1" format="ascii">
          68.3458 68.3519 68.3579 68.364 68.3701 68.3761 68.3822 68.3883 68.3943 68.4004 68.4064 68.4125
          68.4186 68.4246 68.4307 68.4368 68.4428 68.4489 68.455 68.461 68.4671 68.4732 68.4792 68.4853
          68.4914 68.4975 68.5035 68.5096 68.5157 68.5218 68.5278 65.5459 65.4858 53.8232 56.5382 58.0702
          59.3236 60.3277 60.8206 60.8058 60.4631 60.0282 59.6552 55.2662 35.1338 28.5673 28.4165 28.799
          29.2096 29.6143 30.0127 30.4087 30.8074 31.2141 31.6324 32.0633 32.5045 32.95 33.3915 33.8196
          34.2253 34.6016 34.9445 35.2535 35.5311 35.7826 36.0149 36.2359 36.453 36.6733 36.902 37.1426
          37.3966 37.6629 37.9386 38.219 38.4982 38.7702 39.0289 39.2626 39.4116 39.0969 36.1465 24.0829
          7.80045 1.47203 0.232709 0.0335572 0.00444607 0.000538791 5.91703e-05 6.11695e-06 0 0 0 0
          0 0 0 0
        </DataArray>
        <DataArray type="Float32" Name="sat[0]" NumberOfComponents="1" format="ascii">
          0 0 0 0 0 0 0 0 0 0 0 0
          0 0 0 0 0 0 0 0 0 0 0 0
          0 0 0 0 0 0 0 0 0 0 0 0
          0 0 0 0 2.06095e-08 4.67012e-06 0.000809569 0.0720145 0.409707 0.520068 0.52274 0.516478
          0.509723 0.503035 0.496451 0.489975 0.483616 0.477382 0.471281 0.465313 0.459472 0.453744 0.448108 0.442543
          0.437027 0.431542 0.426077 0.42063 0.415203 0.409805 0.404446 0.39914 0.393899 0.388733 0.383649 0.378653
          0.373747 0.368928 0.364193 0.359533 0.354941 0.350413 0.345967 0.341755 0.338795 0.343525 0.392572 0.59503
          0.86876 0.97522 0.99608 0.999434 0.999925 0.999991 0.999999 1 1 1 1 1
          1 1 1 1
        </DataArray>
        <DataArray type="Float32" Name="sat[1]" NumberOfComponents="1" format="ascii">
          0 0 0 0 0 0 0 2.96004e-18 0 0 0 0
          0 0 0 0 0 0 0 0 0 0 0 0
          0 0 3.02903e-17 0 0 0 0 0 0.397227 1 1 1
          1 1 1 1 1 0.999995 0.99919 0.927985 0.590293 0.479932 0.47726 0.483522
          0.490277 0.496965 0.503549 0.510025 0.516384 0.522618 0.528719 0.534687 0.540528 0.546256 0.551892 0.557457
          0.562973 0.568458 0.573923 0.57937 0.584797 0.590195 0.595554 0.60086 0.606101 0.611267 0.616351 0.621346
          0.626253 0.631072 0.635807 0.640467 0.645059 0.649587 0.654033 0.658245 0.661205 0.656475 0.607428 0.40497
          0.13124 0.0247797 0.00391969 0.000565602 7.49867e-05 9.0882e-06 9.95963e-07 9.52156e-08 0 0 0 0
          0 0 0 0
        </DataArray>
        <DataArray type="Float32" Name="sat[2]" NumberOfComponents="1" format="ascii">
          1 1 1 1 1 1 1 1 1 1 1 1
          1 1 1 1 1 1 1 1 1 1 1 1
          1 1 1 1 1 1 1 1 0.602773 0 0 0
          0 0 0 0 0 0 0 0 0 0 0 0
          0 0 0 0 0 0 0 0 0 0 0 0
          0 0 0 0 0 0 0 0 0 0 0 0
          0 0 0 0 0 0 0 0 0 0 0 0
          0 0 0 0 0 0 0 -1.12533e-23 0 0 0 0
          0 0 0 0
        </DataArray>
        <DataArray type="Float32" Name="massFrac[0]" NumberOfComponents="1" format="ascii">
          0 0 0 0 0 0 0 0 0 0 0 0
          0 0 0 0 0 0 0 0 0 0 0 0
          0 0 0 0 0 0 0 0 0 0 0 0
          0 0 0 0 2.36487e-08 5.35938e-06 0.000929013 0.0817818 0.443389 0.554299 0.556938 0.550734
          0.54403 0.537381 0.530822 0.524359 0.518001 0.511755 0.505628 0.499622 0.493732 0.487946 0.482244 0.476607
          0.471012 0.465445 0.459894 0.454356 0.448834 0.443335 0.43787 0.432452 0.427091 0.421798 0.416581 0.411445
          0.406392 0.401421 0.396527 0.391704 0.386946 0.382248 0.377629 0.373251 0.37017 0.375089 0.42572 0.627608
          0.883624 0.978327 0.996581 0.999507 0.999935 0.999992 0.999999 1 1 1 1 1
          1 1 1 1
        </DataArray>
        <DataArray type="Float32" Name="massFrac[1]" NumberOfComponents="1" format="ascii">
          0 0 0 0 0 0 0 4.88187e-17 0 0 0 0
          0 0 0 0 0 0 0 0 0 0 0 0
          0 0 4.98703e-16 0 0 0 0 0 0.872466 0.95464 0.952383 0.951112
          0.950075 0.949245 0.948838 0.948851 0.949135 0.949491 0.948889 0.872213 0.528737 0.423378 0.420865 0.426751
          0.433113 0.439425 0.445651 0.451781 0.457805 0.463709 0.469484 0.475129 0.480649 0.486064 0.491399 0.49668
          0.501937 0.50719 0.512454 0.51773 0.523014 0.528295 0.533555 0.538777 0.543943 0.549038 0.55405 0.558972
          0.5638 0.568537 0.57319 0.577768 0.582284 0.586746 0.59114 0.595314 0.598263 0.593617 0.545544 0.35377
          0.11056 0.02059 0.00324836 0.000468548 6.2118e-05 7.52865e-06 8.25005e-07 7.86453e-08 0 0 0 0
          0 0 0 0
        </DataArray>
        <DataArray type="Float32" Name="massFrac[2]" NumberOfComponents="1" format="ascii">
          1 1 1 1 1 1 1 1 1 1 1 1
          1 1 1 1 1 1 1 1 1 1 1 1
          1 1 1 1 1 1 1 1 0.127534 0.0453603 0.0476168 0.0488876
          0.0499249 0.0507552 0.0511621 0.0511491 0.0508649 0.0505038 0.0501818 0.0460052 0.0278743 0.0223229 0.0221972 0.0225151
          0.0228569 0.0231944 0.0235276 0.0238596 0.0241946 0.0245366 0.024888 0.0252493 0.0256182 0.0259897 0.0263571 0.026713
          0.0270505 0.0273645 0.0276524 0.027914 0.0281519 0.0283703 0.0285748 0.0287714 0.028966 0.0291637 0.0293685 0.029583
          0.0298079 0.0300423 0.0302834 0.0305275 0.03077 0.0310061 0.0312311 0.0314352 0.0315666 0.0312935 0.0287352 0.0186217
          0.00581651 0.00108263 0.000170694 2.46039e-05 3.25963e-06 3.9501e-07 4.33802e-08 4.48458e-09 0 0 0 0
          0 0 0 0
        </DataArray>
        <DataArray type="Float32" Name="total fl. vol." NumberOfComponents="1" format="ascii">
          1 1 1 1 1 1 1 1 1 1 1 1
          1 1 1 1 1 1 1 1 1 1 1 1
          1 1 1 1 1 1 1 0.956401 0.999963 1.00002 0.999992 0.999995
          0.999996 0.999997 0.999999 1 1 1.00001 1.00013 1.00018 1.00005 0.999977 0.999956 0.999955
          0.999966 0.999975 0.999972 0.999945 0.999892 0.999814 0.999724 0.999637 0.999572 0.999543 0.999561 0.999626
          0.999732 0.999865 1.00001 1.00014 1.00026 1.00035 1.00039 1.00041 1.00039 1.00034 1.00028 1.0002
          1.00013 1.00006 1.00001 0.999986 0.999985 1.00001 1.00004 1.00008 1.00011 1.00012 1.0001 1.00006
          1.00003 1.00001 1 1 1 1 1 1 1 1 1 1
          1 1 1 1
        </DataArray>
      </CellData>
      <Points>
        <DataArray type="Float32" Name="Coordinates" NumberOfComponents="3" format="ascii">
          0 0 0 1 0 0 0 1 0 1 1 0
          0 0 1 1 0 1 0 1 1 1 1 1
          0 0 2 1 0 2 0 1 2 1 1 2
          0 0 3 1 0 3 0 1 3 1 1 3
          0 0 4 1 0 4 0 1 4 1 1 4
          0 0 5 1 0 5 0 1 5 1 1 5
          0 0 6 1 0 6 0 1 6 1 1 6
          0 0 7 1 0 7 0 1 7 1 1 7
          0 0 8 1 0 8 0 1 8 1 1 8
          0 0 9 1 0 9 0 1 9 1 1 9
          0 0 10 1 0 10 0 1 10 1 1 10
          0 0 11 1 0 11 0 1 11 1 1 11
          0 0 12 1 0 12 0 1 12 1 1 12
          0 0 13 1 0 13 0 1 13 1 1 13
          0 0 14 1 0 14 0 1 14 1 1 14
          0 0 15 1 0 15 0 1 15 1 1 15
          0 0 16 1 0 16 0 1 16 1 1 16
          0 0 17 1 0 17 0 1 17 1 1 17
          0 0 18 1 0 18 0 1 18 1 1 18
          0 0 19 1 0 19 0 1 19 1 1 19
          0 0 20 1 0 20 0 1 20 1 1 20
          0 0 21 1 0 21 0 1 21 1 1 21
          0 0 22 1 0 22 0 1 22 1 1 22
          0 0 23 1 0 23 0 1 23 1 1 23
          0 0 24 1 0 24 0 1 24 1 1 24
          0 0 25 1 0 25 0 1 25 1 1 25
          0 0 26 1 0 26 0 1 26 1 1 26
          0 0 27 1 0 27 0 1 27 1 1 27
          0 0 28 1 0 28 0 1 28 1 1 28
          0 0 29 1 0 29 0 1 29 1 1 29
          0 0 30 1 0 30 0 1 30 1 1 30
          0 0 31 1 0 31 0 1 31 1 1 31
          0 0 32 1 0 32 0 1 32 1 1 32
          0 0 33 1 0 33 0 1 33 1 1 33
          0 0 34 1 0 34 0 1 34 1 1 34
          0 0 35 1 0 35 0 1 35 1 1 35
          0 0 36 1 0 36 0 1 36 1 1 36
          0 0 37 1 0 37 0 1 37 1 1 37
          0 0 38 1 0 38 0 1 38 1 1 38
          0 0 39 1 0 39 0 1 39 1 1 39
          0 0 40 1 0 40 0 1 40 1 1 40
          0 0 41 1 0 41 0 1 41 1 1 41
          0 0 42 1 0 42 0 1 42 1 1 42
          0 0 43 1 0 43 0 1 43 1 1 43
          0 0 44 1 0 44 0 1 44 1 1 44
          0 0 45 1 0 45 0 1 45 1 1 45
          0 0 46 1 0 46 0 1 46 1 1 46
          0 0 47 1 0 47 0 1 47 1 1 47
          0 0 48 1 0 48 0 1 48 1 1 48
          0 0 49 1 0 49 0 1 49 1 1 49
          0 0 50 1 0 50 0 1 50 1 1 50
          0 0 51 1 0 51 0 1 51 1 1 51
          0 0 52 1 0 52 0 1 52 1 1 52
          0 0 53 1 0 53 0 1 53 1 1 53
          0 0 54 1 0 54 0 1 54 1 1 54
          0 0 55 1 0 55 0 1 55 1 1 55
          0 0 56 1 0 56 0 1 56 1 1 56
          0 0 57 1 0 57 0 1 57 1 1 57
          0 0 58 1 0 58 0 1 58 1 1 58
          0 0 59 1 0 59 0 1 59 1 1 59
          0 0 60 1 0 60 0 1 60 1 1 60
          0 0 61 1 0 61 0 1 61 1 1 61
          0 0 62 1 0 62 0 1 62 1 1 62
          0 0 63 1 0 63 0 1 63 1 1 63
          0 0 64 1 0 64 0 1 64 1 1 64
          0 0 65 1 0 65 0 1 65 1 1 65
          0 0 66 1 0 66 0 1 66 1 1 66
          0 0 67 1 0 67 0 1 67 1 1 67
          0 0 68 1 0 68 0 1 68 1 1 68
          0 0 69 1 0 69 0 1 69 1 1 69
          0 0 70 1 0 70 0 1 70 1 1 70
          0 0 71 1 0 71 0 1 71 1 1 71
          0 0 72 1 0 72 0 1 72 1 1 72
          0 0 73 1 0 73 0 1 73 1 1 73
          0 0 74 1 0 74 0 1 74 1 1 74
          0 0 75 1 0 75 0 1 75 1 1 75
          0 0 76 1 0 76 0 1 76 1 1 76
          0 0 77 1 0 77 0 1 77 1 1 77
          0 0 78 1 0 78 0 1 78 1 1 78
          0 0 79 1 0 79 0 1 79 1 1 79
          0 0 80 1 0 80 0 1 80 1 1 80
          0 0 81 1 0 81 0 1 81 1 1 81
          0 0 82 1 0 82 0 1 82 1 1 82
          0 0 83 1 0 83 0 1 83 1 1 83
          0 0 84 1 0 84 0 1 84 1 1 84
          0 0 85 1 0 85 0 1 85 1 1 85
          0 0 86 1 0 86 0 1 86 1 1 86
          0 0 87 1 0 87 0 1 87 1 1 87
          0 0 88 1 0 88 0 1 88 1 1 88
          0 0 89 1 0 89 0 1 89 1 1 89
          0 0 90 1 0 90 0 1 90 1 1 90
          0 0 91 1 0 91 0 1 91 1 1 91
          0 0 92 1 0 92 0 1 92 1 1 92
          0 0 93 1 0 93 0 1 93 1 1 93
          0 0 94 1 0 94 0 1 94 1 1 94
          0 0 95 1 0 95 0 1 95 1 1 95
          0 0 96 1 0 96 0 1 96 1 1 96
          0 0 97 1 0 97 0 1 97 1 1 97
          0 0 98 1 0 98 0 1 98 1 1 98
          0 0 99 1 0 99 0 1 99 1 1 99
          0 0 100 1 0 100 0 1 100 1 1 100
        </DataArray>
      </Points>
      <Cells>
        <DataArray type="Int32" Name="connectivity" NumberOfComponents="1" format="ascii">
          0 1 3 2 4 5 7 6 4 5 7 6
          8 9 11 10 8 9 11 10 12 13 15 14
          12 13 15 14 16 17 19 18 16 17 19 18
          20 21 23 22 20 21 23 22 24 25 27 26
          24 25 27 26 28 29 31 30 28 29 31 30
          32 33 35 34 32 33 35 34 36 37 39 38
          36 37 39 38 40 41 43 42 40 41 43 42
          44 45 47 46 44 45 47 46 48 49 51 50
          48 49 51 50 52 53 55 54 52 53 55 54
          56 57 59 58 56 57 59 58 60 61 63 62
          60 61 63 62 64 65 67 66 64 65 67 66
          68 69 71 70 68 69 71 70 72 73 75 74
          72 73 75 74 76 77 79 78 76 77 79 78
          80 81 83 82 80 81 83 82 84 85 87 86
          84 85 87 86 88 89 91 90 88 89 91 90
          92 93 95 94 92 93 95 94 96 97 99 98
          96 97 99 98 100 101 103 102 100 101 103 102
          104 105 107 106 104 105 107 106 108 109 111 110
          108 109 111 110 112 113 115 114 112 113 115 114
          116 117 119 118 116 117 119 118 120 121 123 122
          120 121 123 122 124 125 127 126 124 125 127 126
          128 129 131 130 128 129 131 130 132 133 135 134
          132 133 135 134 136 137 139 138 136 137 139 138
          140 141 143 142 140 141 143 142 144 145 147 146
          144 145 147 146 148 149 151 150 148 149 151 150
          152 153 155 154 152 153 155 154 156 157 159 158
          156 157 159 158 160 161 163 162 160 161 163 162
          164 165 167 166 164 165 167 166 168 169 171 170
          168 169 171 170 172 173 175 174 172 173 175 174
          176 177 179 178 176 177 179 178 180 181 183 182
          180 181 183 182 184 185 187 186 184 185 187 186
          188 189 191 190 188 189 191 190 192 193 195 194
          192 193 195 194 196 197 199 198 196 197 199 198
          200 201 203 202 200 201 203 202 204 205 207 206
          204 205 207 206 208 209 211 210 208 209 211 210
          212 213 215 214 212 213 215 214 216 217 219 218
          216 217 219 218 220 221 223 222 220 221 223 222
          224 225 227 226 224 225 227 226 228 229 231 230
          228 229 231 230 232 233 235 234 232 233 235 234
          236 237 239 238 236 237 239 238 240 241 243 242
          240 241 243 242 244 245 247 246 244 245 247 246
          248 249 251 250 248 249 251 250 252 253 255 254
          252 253 255 254 256 257 259 258 256 257 259 258
          260 261 263 262 260 261 263 262 264 265 267 266
          264 265 267 266 268 269 271 270 268 269 271 270
          272 273 275 274 272 273 275 274 276 277 279 278
          276 277 279 278 280 281 283 282 280 281 283 282
          284 285 287 286 284 285 287 286 288 289 291 290
          288 289 291 290 292 293 295 294 292 293 295 294
          296 297 299 298 296 297 299 298 300 301 303 302
          300 301 303 302 304 305 307 306 304 305 307 306
          308 309 311 310 308 309 311 310 312 313 315 314
          312 313 315 314 316 317 319 318 316 317 319 318
          320 321 323 322 320 321 323 322 324 325 327 326
          324 325 327 326 328 329 331 330 328 329 331 330
          332 333 335 334 332 333 335 334 336 337 339 338
          336 337 339 338 340 341 343 342 340 341 343 342
          344 345 347 346 344 345 347 346 348 349 351 350
          348 349 351 350 352 353 355 354 352 353 355 354
          356 357 359 358 356 357 359 358 360 361 363 362
          360 361 363 362 364 365 367 366 364 365 367 366
          368 369 371 370 368 369 371 370 372 373 375 374
          372 373 375 374 376 377 379 378 376 377 379 378
          380 381 383 382 380 381 383 382 384 385 387 386
          384 385 387 386 388 389 391 390 388 389 391 390
          392 393 395 394 392 393 395 394 396 397 399 398
          396 397 399 398 400 401 403 402
        </DataArray>
        <DataArray type="Int32" Name="offsets" NumberOfComponents="1" format="ascii">
          8 16 24 32 40 48 56 64 72 80 88 96
          104 112 120 128 136 144 152 160 168 176 184 192
          200 208 216 224 232 240 248 256 264 272 280 288
          296 304 312 320 328 336 344 352 360 368 376 384
          392 400 408 416 424 432 440 448 456 464 472 480
          488 496 504 512 520 528 536 544 552 560 568 576
          584 592 600 608 616 624 632 640 648 656 664 672
          680 688 696 704 712 720 728 736 744 752 760 768
          776 784 792 800
        </DataArray>
        <DataArray type="UInt8" Name="types" NumberOfComponents="1" format="ascii">
          12 12 12 12 12 12 12 12 12 12 12 12
          12 12 12 12 12 12 12 12 12 12 12 12
          12 12 12 12 12 12 12 12 12 12 12 12
          12 12 12 12 12 12 12 12 12 12 12 12
          12 12 12 12 12 12 12 12 12 12 12 12
          12 12 12 12 12 12 12 12 12 12 12 12
          12 12 12 12 12 12 12 12 12 12 12 12
          12 12 12 12 12 12 12 12 12 12 12 12
          12 12 12 12
        </DataArray>
      </Cells>
    </Piece>
  </UnstructuredGrid>
</VTKFile>
