<?xml version="1.0"?>
<VTKFile type="UnstructuredGrid" version="0.1" byte_order="LittleEndian">
  <UnstructuredGrid>
    <Piece NumberOfCells="360" NumberOfPoints="800">
      <CellData Scalars="pressure[0]">
        <DataArray type="Float32" Name="pressure[0]" NumberOfComponents="1" format="ascii">
          2.11707e+07 2.11854e+07 2.22463e+07 2.31471e+07 2.35125e+07 2.39316e+07 2.40671e+07 2.41163e+07 2.41756e+07 2.42382e+07 2.44057e+07 2.4687e+07
          2.49026e+07 2.5502e+07 2.62127e+07 2.12152e+07 2.123e+07 2.24033e+07 2.33532e+07 2.37128e+07 2.41287e+07 2.42264e+07 2.42641e+07 2.43242e+07
          2.43943e+07 2.46315e+07 2.49234e+07 2.50907e+07 2.57018e+07 2.63778e+07 2.12601e+07 2.12746e+07 2.24639e+07 2.35234e+07 2.38466e+07 2.4232e+07
          2.43531e+07 2.44104e+07 2.44888e+07 2.45879e+07 2.49131e+07 2.52516e+07 2.54097e+07 2.59611e+07 2.65852e+07 2.13058e+07 2.13261e+07 2.2294e+07
          2.36712e+07 2.39709e+07 2.43475e+07 2.45751e+07 2.46512e+07 2.475e+07 2.4872e+07 2.52883e+07 2.56315e+07 2.58021e+07 2.62599e+07 2.68399e+07
          2.13783e+07 2.1408e+07 1.97748e+07 2.38023e+07 2.43989e+07 2.50232e+07 2.51204e+07 2.51662e+07 2.52279e+07 2.55189e+07 2.5712e+07 2.60178e+07
          2.62049e+07 2.65918e+07 2.70881e+07 2.15618e+07 2.16053e+07 2.18783e+07 2.45456e+07 2.50809e+07 2.56267e+07 2.57389e+07 2.58442e+07 2.50389e+07
          2.482e+07 2.62056e+07 2.63832e+07 2.65717e+07 2.69251e+07 2.73627e+07 2.1783e+07 2.18318e+07 2.25979e+07 2.52616e+07 2.56995e+07 2.60984e+07
          2.61666e+07 2.62405e+07 2.60457e+07 2.63348e+07 2.6599e+07 2.66748e+07 2.6861e+07 2.7273e+07 2.77354e+07 2.21095e+07 2.21649e+07 2.30918e+07
          2.57375e+07 2.62456e+07 2.65233e+07 2.65761e+07 2.66235e+07 2.66564e+07 2.67841e+07 2.68708e+07 2.69227e+07 2.71569e+07 2.76193e+07 2.82416e+07
          2.25148e+07 2.25682e+07 2.35316e+07 2.60407e+07 2.67362e+07 2.69537e+07 2.70351e+07 2.71129e+07 2.71148e+07 2.7122e+07 2.71312e+07 2.71508e+07
          2.73951e+07 2.79972e+07 2.8744e+07 2.30582e+07 2.3169e+07 2.40013e+07 2.5681e+07 2.71392e+07 2.73283e+07 2.75161e+07 2.76927e+07 2.75479e+07
          2.74681e+07 2.74357e+07 2.74393e+07 2.77207e+07 2.83761e+07 2.90526e+07 2.41439e+07 2.456e+07 2.49829e+07 2.59125e+07 2.74569e+07 2.76112e+07
          2.7917e+07 2.8188e+07 2.80088e+07 2.78834e+07 2.78258e+07 2.79552e+07 2.81253e+07 2.87064e+07 2.96251e+07 2.57218e+07 2.58626e+07 2.59704e+07
          2.64288e+07 2.77872e+07 2.78894e+07 2.83289e+07 2.86994e+07 2.87901e+07 2.86839e+07 2.8604e+07 2.86722e+07 2.90621e+07 2.97504e+07 3.02804e+07
          2.67464e+07 2.67775e+07 2.66605e+07 2.71823e+07 2.82448e+07 2.83437e+07 2.88165e+07 2.9237e+07 2.9332e+07 2.93763e+07 2.94011e+07 2.95954e+07
          3.00238e+07 3.07356e+07 3.08571e+07 2.75618e+07 2.75933e+07 2.73646e+07 2.8281e+07 2.89843e+07 2.90621e+07 2.9453e+07 2.97674e+07 2.98337e+07
          2.99195e+07 3.00076e+07 3.04237e+07 3.09645e+07 3.13886e+07 3.12351e+07 2.82277e+07 2.82286e+07 2.82322e+07 2.92767e+07 2.96719e+07 2.97297e+07
          2.99935e+07 3.01846e+07 3.02338e+07 3.03092e+07 3.04533e+07 3.10946e+07 3.1598e+07 3.17639e+07 3.1678e+07 2.88316e+07 2.88618e+07 2.90005e+07
          2.98977e+07 3.00994e+07 3.01524e+07 3.03403e+07 3.04666e+07 3.05138e+07 3.05824e+07 3.08391e+07 3.1457e+07 3.19196e+07 3.21929e+07 3.20975e+07
          2.94495e+07 2.9502e+07 2.98768e+07 3.03464e+07 3.04544e+07 3.04942e+07 3.05968e+07 3.06867e+07 3.07332e+07 3.07932e+07 3.11271e+07 3.18597e+07
          3.2356e+07 3.26224e+07 3.24843e+07 2.99528e+07 3.00119e+07 3.03456e+07 3.06011e+07 3.07144e+07 3.0759e+07 3.084e+07 3.0908e+07 3.09562e+07
          3.10118e+07 3.14195e+07 3.21924e+07 3.26991e+07 3.29208e+07 3.28701e+07 3.02452e+07 3.03099e+07 3.05094e+07 3.07951e+07 3.09446e+07 3.09921e+07
          3.10639e+07 3.11242e+07 3.11691e+07 3.12229e+07 3.16702e+07 3.25227e+07 3.30411e+07 3.32119e+07 3.33918e+07 3.04833e+07 3.05412e+07 3.07204e+07
          3.10036e+07 3.11507e+07 3.11986e+07 3.12685e+07 3.13258e+07 3.1371e+07 3.14301e+07 3.1873e+07 3.28109e+07 3.33792e+07 3.35172e+07 3.38901e+07
          3.06868e+07 3.07514e+07 3.08952e+07 3.11571e+07 3.13381e+07 3.13899e+07 3.14645e+07 3.15248e+07 3.15833e+07 3.16562e+07 3.22789e+07 3.3281e+07
          3.36952e+07 3.38399e+07 3.42863e+07 3.08826e+07 3.09494e+07 3.10783e+07 3.13338e+07 3.15178e+07 3.1574e+07 3.16595e+07 3.17279e+07 3.1802e+07
          3.1885e+07 3.27225e+07 3.37626e+07 3.40216e+07 3.41936e+07 3.46732e+07 3.1063e+07 3.11246e+07 3.12779e+07 3.15463e+07 3.16976e+07 3.17611e+07
          3.18607e+07 3.19394e+07 3.20332e+07 3.2135e+07 3.31034e+07 3.41656e+07 3.43886e+07 3.4579e+07 3.49602e+07 3.12299e+07 3.12888e+07 3.1424e+07
          3.16919e+07 3.18838e+07 3.19488e+07 3.20603e+07 3.21515e+07 3.22646e+07 3.23989e+07 3.35209e+07 3.45204e+07 3.47666e+07 3.49406e+07 3.52179e+07
        </DataArray>
        <DataArray type="Float32" Name="pressure[1]" NumberOfComponents="1" format="ascii">
          2.11707e+07 2.11854e+07 2.22463e+07 2.31471e+07 2.35125e+07 2.39316e+07 2.40671e+07 2.41163e+07 2.41756e+07 2.42382e+07 2.44057e+07 2.4687e+07
          2.49026e+07 2.5502e+07 2.62127e+07 2.12152e+07 2.123e+07 2.24033e+07 2.33532e+07 2.37128e+07 2.41287e+07 2.42264e+07 2.42641e+07 2.43242e+07
          2.43943e+07 2.46315e+07 2.49234e+07 2.50907e+07 2.57018e+07 2.63778e+07 2.12601e+07 2.12746e+07 2.24639e+07 2.35234e+07 2.38466e+07 2.4232e+07
          2.43531e+07 2.44104e+07 2.44888e+07 2.45879e+07 2.49131e+07 2.52516e+07 2.54097e+07 2.59611e+07 2.65852e+07 2.13058e+07 2.13261e+07 2.2294e+07
          2.36712e+07 2.39709e+07 2.43475e+07 2.45751e+07 2.46512e+07 2.475e+07 2.4872e+07 2.52883e+07 2.56315e+07 2.58021e+07 2.62599e+07 2.68399e+07
          2.13783e+07 2.1408e+07 1.97748e+07 2.38023e+07 2.43989e+07 2.50232e+07 2.51204e+07 2.51662e+07 2.52279e+07 2.55189e+07 2.5712e+07 2.60178e+07
          2.62049e+07 2.65918e+07 2.70881e+07 2.15618e+07 2.16053e+07 2.18783e+07 2.45456e+07 2.50809e+07 2.56267e+07 2.57389e+07 2.58442e+07 2.50389e+07
          2.482e+07 2.62056e+07 2.63832e+07 2.65717e+07 2.69251e+07 2.73627e+07 2.1783e+07 2.18318e+07 2.25979e+07 2.52616e+07 2.56995e+07 2.60984e+07
          2.61666e+07 2.62405e+07 2.60457e+07 2.63348e+07 2.6599e+07 2.66748e+07 2.6861e+07 2.7273e+07 2.77354e+07 2.21095e+07 2.21649e+07 2.30918e+07
          2.57375e+07 2.62456e+07 2.65233e+07 2.65761e+07 2.66235e+07 2.66564e+07 2.67841e+07 2.68708e+07 2.69227e+07 2.71569e+07 2.76193e+07 2.82416e+07
          2.25148e+07 2.25682e+07 2.35316e+07 2.60407e+07 2.67362e+07 2.69537e+07 2.70351e+07 2.71129e+07 2.71148e+07 2.7122e+07 2.71312e+07 2.71508e+07
          2.73951e+07 2.79972e+07 2.8744e+07 2.30582e+07 2.3169e+07 2.40013e+07 2.5681e+07 2.71392e+07 2.73283e+07 2.75161e+07 2.76927e+07 2.75479e+07
          2.74681e+07 2.74357e+07 2.74393e+07 2.77207e+07 2.83761e+07 2.90526e+07 2.41439e+07 2.456e+07 2.49829e+07 2.59125e+07 2.74569e+07 2.76112e+07
          2.7917e+07 2.8188e+07 2.80088e+07 2.78834e+07 2.78258e+07 2.79552e+07 2.81253e+07 2.87064e+07 2.96251e+07 2.57218e+07 2.58626e+07 2.59704e+07
          2.64288e+07 2.77872e+07 2.78894e+07 2.83289e+07 2.86994e+07 2.87901e+07 2.86839e+07 2.8604e+07 2.86722e+07 2.90621e+07 2.97504e+07 3.02804e+07
          2.67464e+07 2.67775e+07 2.66605e+07 2.71823e+07 2.82448e+07 2.83437e+07 2.88165e+07 2.9237e+07 2.9332e+07 2.93763e+07 2.94011e+07 2.95954e+07
          3.00238e+07 3.07356e+07 3.08571e+07 2.75618e+07 2.75933e+07 2.73646e+07 2.8281e+07 2.89843e+07 2.90621e+07 2.9453e+07 2.97674e+07 2.98337e+07
          2.99195e+07 3.00076e+07 3.04237e+07 3.09645e+07 3.13886e+07 3.12351e+07 2.82277e+07 2.82286e+07 2.82322e+07 2.92767e+07 2.96719e+07 2.97297e+07
          2.99935e+07 3.01846e+07 3.02338e+07 3.03092e+07 3.04533e+07 3.10946e+07 3.1598e+07 3.17639e+07 3.1678e+07 2.88316e+07 2.88618e+07 2.90005e+07
          2.98977e+07 3.00994e+07 3.01524e+07 3.03403e+07 3.04666e+07 3.05138e+07 3.05824e+07 3.08391e+07 3.1457e+07 3.19196e+07 3.21929e+07 3.20975e+07
          2.94495e+07 2.9502e+07 2.98768e+07 3.03464e+07 3.04544e+07 3.04942e+07 3.05968e+07 3.06867e+07 3.07332e+07 3.07932e+07 3.11271e+07 3.18597e+07
          3.2356e+07 3.26224e+07 3.24843e+07 2.99528e+07 3.00119e+07 3.03456e+07 3.06011e+07 3.07144e+07 3.0759e+07 3.084e+07 3.0908e+07 3.09562e+07
          3.10118e+07 3.14195e+07 3.21924e+07 3.26991e+07 3.29208e+07 3.28701e+07 3.02452e+07 3.03099e+07 3.05094e+07 3.07951e+07 3.09446e+07 3.09921e+07
          3.10639e+07 3.11242e+07 3.11691e+07 3.12229e+07 3.16702e+07 3.25227e+07 3.30411e+07 3.32119e+07 3.33918e+07 3.04833e+07 3.05412e+07 3.07204e+07
          3.10036e+07 3.11507e+07 3.11986e+07 3.12685e+07 3.13258e+07 3.1371e+07 3.14301e+07 3.1873e+07 3.28109e+07 3.33792e+07 3.35172e+07 3.38901e+07
          3.06868e+07 3.07514e+07 3.08952e+07 3.11571e+07 3.13381e+07 3.13899e+07 3.14645e+07 3.15248e+07 3.15833e+07 3.16562e+07 3.22789e+07 3.3281e+07
          3.36952e+07 3.38399e+07 3.42863e+07 3.08826e+07 3.09494e+07 3.10783e+07 3.13338e+07 3.15178e+07 3.1574e+07 3.16595e+07 3.17279e+07 3.1802e+07
          3.1885e+07 3.27225e+07 3.37626e+07 3.40216e+07 3.41936e+07 3.46732e+07 3.1063e+07 3.11246e+07 3.12779e+07 3.15463e+07 3.16976e+07 3.17611e+07
          3.18607e+07 3.19394e+07 3.20332e+07 3.2135e+07 3.31034e+07 3.41656e+07 3.43886e+07 3.4579e+07 3.49602e+07 3.12299e+07 3.12888e+07 3.1424e+07
          3.16919e+07 3.18838e+07 3.19488e+07 3.20603e+07 3.21515e+07 3.22646e+07 3.23989e+07 3.35209e+07 3.45204e+07 3.47666e+07 3.49406e+07 3.52179e+07
        </DataArray>
        <DataArray type="Float32" Name="pressure[2]" NumberOfComponents="1" format="ascii">
          2.11707e+07 2.11854e+07 2.22463e+07 2.31471e+07 2.35125e+07 2.39316e+07 2.40671e+07 2.41163e+07 2.41756e+07 2.42382e+07 2.44057e+07 2.4687e+07
          2.49026e+07 2.5502e+07 2.62127e+07 2.12152e+07 2.123e+07 2.24033e+07 2.33532e+07 2.37128e+07 2.41287e+07 2.42264e+07 2.42641e+07 2.43242e+07
          2.43943e+07 2.46315e+07 2.49234e+07 2.50907e+07 2.57018e+07 2.63778e+07 2.12601e+07 2.12746e+07 2.24639e+07 2.35234e+07 2.38466e+07 2.4232e+07
          2.43531e+07 2.44104e+07 2.44888e+07 2.45879e+07 2.49131e+07 2.52516e+07 2.54097e+07 2.59611e+07 2.65852e+07 2.13058e+07 2.13261e+07 2.2294e+07
          2.36712e+07 2.39709e+07 2.43475e+07 2.45751e+07 2.46512e+07 2.475e+07 2.4872e+07 2.52883e+07 2.56315e+07 2.58021e+07 2.62599e+07 2.68399e+07
          2.13783e+07 2.1408e+07 1.97748e+07 2.38023e+07 2.43989e+07 2.50232e+07 2.51204e+07 2.51662e+07 2.52279e+07 2.55189e+07 2.5712e+07 2.60178e+07
          2.62049e+07 2.65918e+07 2.70881e+07 2.15618e+07 2.16053e+07 2.18783e+07 2.45456e+07 2.50809e+07 2.56267e+07 2.57389e+07 2.58442e+07 2.50389e+07
          2.482e+07 2.62056e+07 2.63832e+07 2.65717e+07 2.69251e+07 2.73627e+07 2.1783e+07 2.18318e+07 2.25979e+07 2.52616e+07 2.56995e+07 2.60984e+07
          2.61666e+07 2.62405e+07 2.60457e+07 2.63348e+07 2.6599e+07 2.66748e+07 2.6861e+07 2.7273e+07 2.77354e+07 2.21095e+07 2.21649e+07 2.30918e+07
          2.57375e+07 2.62456e+07 2.65233e+07 2.65761e+07 2.66235e+07 2.66564e+07 2.67841e+07 2.68708e+07 2.69227e+07 2.71569e+07 2.76193e+07 2.82416e+07
          2.25148e+07 2.25682e+07 2.35316e+07 2.60407e+07 2.67362e+07 2.69537e+07 2.70351e+07 2.71129e+07 2.71148e+07 2.7122e+07 2.71312e+07 2.71508e+07
          2.73951e+07 2.79972e+07 2.8744e+07 2.30582e+07 2.3169e+07 2.40013e+07 2.5681e+07 2.71392e+07 2.73283e+07 2.75161e+07 2.76927e+07 2.75479e+07
          2.74681e+07 2.74357e+07 2.74393e+07 2.77207e+07 2.83761e+07 2.90526e+07 2.41439e+07 2.456e+07 2.49829e+07 2.59125e+07 2.74569e+07 2.76112e+07
          2.7917e+07 2.8188e+07 2.80088e+07 2.78834e+07 2.78258e+07 2.79552e+07 2.81253e+07 2.87064e+07 2.96251e+07 2.57218e+07 2.58626e+07 2.59704e+07
          2.64288e+07 2.77872e+07 2.78894e+07 2.83289e+07 2.86994e+07 2.87901e+07 2.86839e+07 2.8604e+07 2.86722e+07 2.90621e+07 2.97504e+07 3.02804e+07
          2.67464e+07 2.67775e+07 2.66605e+07 2.71823e+07 2.82448e+07 2.83437e+07 2.88165e+07 2.9237e+07 2.9332e+07 2.93763e+07 2.94011e+07 2.95954e+07
          3.00238e+07 3.07356e+07 3.08571e+07 2.75618e+07 2.75933e+07 2.73646e+07 2.8281e+07 2.89843e+07 2.90621e+07 2.9453e+07 2.97674e+07 2.98337e+07
          2.99195e+07 3.00076e+07 3.04237e+07 3.09645e+07 3.13886e+07 3.12351e+07 2.82277e+07 2.82286e+07 2.82322e+07 2.92767e+07 2.96719e+07 2.97297e+07
          2.99935e+07 3.01846e+07 3.02338e+07 3.03092e+07 3.04533e+07 3.10946e+07 3.1598e+07 3.17639e+07 3.1678e+07 2.88316e+07 2.88618e+07 2.90005e+07
          2.98977e+07 3.00994e+07 3.01524e+07 3.03403e+07 3.04666e+07 3.05138e+07 3.05824e+07 3.08391e+07 3.1457e+07 3.19196e+07 3.21929e+07 3.20975e+07
          2.94495e+07 2.9502e+07 2.98768e+07 3.03464e+07 3.04544e+07 3.04942e+07 3.05968e+07 3.06867e+07 3.07332e+07 3.07932e+07 3.11271e+07 3.18597e+07
          3.2356e+07 3.26224e+07 3.24843e+07 2.99528e+07 3.00119e+07 3.03456e+07 3.06011e+07 3.07144e+07 3.0759e+07 3.084e+07 3.0908e+07 3.09562e+07
          3.10118e+07 3.14195e+07 3.21924e+07 3.26991e+07 3.29208e+07 3.28701e+07 3.02452e+07 3.03099e+07 3.05094e+07 3.07951e+07 3.09446e+07 3.09921e+07
          3.10639e+07 3.11242e+07 3.11691e+07 3.12229e+07 3.16702e+07 3.25227e+07 3.30411e+07 3.32119e+07 3.33918e+07 3.04833e+07 3.05412e+07 3.07204e+07
          3.10036e+07 3.11507e+07 3.11986e+07 3.12685e+07 3.13258e+07 3.1371e+07 3.14301e+07 3.1873e+07 3.28109e+07 3.33792e+07 3.35172e+07 3.38901e+07
          3.06868e+07 3.07514e+07 3.08952e+07 3.11571e+07 3.13381e+07 3.13899e+07 3.14645e+07 3.15248e+07 3.15833e+07 3.16562e+07 3.22789e+07 3.3281e+07
          3.36952e+07 3.38399e+07 3.42863e+07 3.08826e+07 3.09494e+07 3.10783e+07 3.13338e+07 3.15178e+07 3.1574e+07 3.16595e+07 3.17279e+07 3.1802e+07
          3.1885e+07 3.27225e+07 3.37626e+07 3.40216e+07 3.41936e+07 3.46732e+07 3.1063e+07 3.11246e+07 3.12779e+07 3.15463e+07 3.16976e+07 3.17611e+07
          3.18607e+07 3.19394e+07 3.20332e+07 3.2135e+07 3.31034e+07 3.41656e+07 3.43886e+07 3.4579e+07 3.49602e+07 3.12299e+07 3.12888e+07 3.1424e+07
          3.16919e+07 3.18838e+07 3.19488e+07 3.20603e+07 3.21515e+07 3.22646e+07 3.23989e+07 3.35209e+07 3.45204e+07 3.47666e+07 3.49406e+07 3.52179e+07
        </DataArray>
        <DataArray type="Float32" Name="velocity[0]" NumberOfComponents="1" format="ascii">
          -1.78883e-09 6.61348e-08 -1.77371e-10 -2.15288e-08 -7.38805e-10 -2.58974e-09 -3.73767e-09 -1.08974e-09 -2.32388e-09 -3.02288e-09 -2.27074e-09 -3.3833e-09
          -2.54057e-09 -6.44227e-10 -2.51042e-09 -1.02514e-08 1.95355e-07 3.2567e-10 -7.55215e-08 -6.42787e-10 -3.45376e-10 -4.71466e-10 -1.83367e-09 -7.89902e-09
          -9.44293e-09 -4.96538e-09 -1.42717e-08 -8.89686e-09 -2.01468e-09 -6.6634e-09 -3.4761e-08 3.02528e-07 1.73106e-09 -8.78056e-08 4.86486e-10 4.22802e-09
          -1.12942e-09 -7.47629e-09 -1.8039e-08 -1.59047e-08 -6.47814e-09 -3.119e-08 -1.15226e-08 -4.09494e-09 -9.90493e-09 -3.50012e-08 3.3704e-07 1.01444e-08
          -2.3971e-08 -1.83905e-09 -1.46583e-08 -3.12362e-08 -2.99369e-08 -2.79914e-08 -2.98913e-08 -7.76004e-09 -5.28796e-08 -7.80636e-09 -5.70373e-09 -1.32566e-08
          -6.92617e-08 7.66276e-08 3.55004e-09 -6.31354e-08 -8.89599e-09 -5.48334e-08 -7.85101e-08 -8.06491e-08 -9.2697e-09 -1.03916e-08 -9.67408e-09 -9.81236e-08
          -4.10845e-09 -5.12824e-09 -1.60301e-08 -1.25598e-07 -1.55903e-07 -6.77504e-09 -1.01439e-07 -1.48207e-08 -9.66606e-08 -7.45054e-08 -9.62791e-08 -6.26389e-09
          1.75185e-09 -1.26111e-08 -1.34501e-07 -2.34294e-09 -3.96319e-09 -1.77587e-08 -1.33967e-07 -1.44953e-07 -2.45548e-09 -3.31246e-08 -1.38003e-08 -1.48658e-07
          -4.07428e-08 -1.20088e-07 -1.7715e-08 -9.69885e-09 -1.44096e-08 -1.4026e-07 -1.73171e-09 -3.65322e-09 -1.89162e-08 -1.20499e-07 -1.30037e-07 -2.29897e-09
          -5.33688e-09 -8.99361e-09 -1.86412e-07 -2.57636e-08 -2.0301e-07 -7.4686e-09 -2.35048e-09 -1.50084e-08 -1.37059e-07 -1.27069e-09 -3.54418e-09 -2.02804e-08
          -1.05501e-07 -1.14301e-07 -3.24826e-09 1.88432e-10 -5.73746e-09 -1.95465e-07 -1.06607e-08 -2.71666e-07 -3.75626e-09 -1.93997e-09 -2.25776e-08 -1.14477e-07
          -1.15796e-09 -3.09552e-09 -2.21412e-08 -8.66986e-08 -9.63925e-08 -1.6852e-08 6.80306e-10 -4.1243e-09 -1.95855e-07 -3.599e-09 -3.32342e-07 -3.46491e-09
          -2.7869e-09 -4.67107e-08 -6.83863e-08 -2.47186e-09 -2.65883e-09 -2.40318e-08 -5.10434e-08 -6.55363e-08 -4.05377e-08 -8.48932e-10 -4.1388e-09 -1.94843e-07
          -1.22093e-09 -3.91638e-07 -4.5617e-09 -3.31053e-09 -5.05515e-08 -4.04111e-08 -4.59973e-09 -3.68891e-09 -2.52969e-08 -3.20986e-08 -5.5114e-08 -5.0605e-08
          -1.36684e-09 -6.79836e-09 -1.98218e-07 -1.01245e-09 -4.22703e-07 -1.23101e-08 -3.54999e-09 -3.3111e-08 -3.39486e-08 -1.02812e-08 -5.67351e-09 -2.58665e-08
          -2.89897e-08 -5.6984e-08 -4.05063e-08 -1.6605e-09 -1.13386e-08 -1.87743e-07 -1.42596e-09 -4.20338e-07 -3.66559e-08 -4.86202e-09 -2.23582e-08 -1.68931e-08
          -2.10133e-08 -1.00074e-08 -2.59256e-08 -3.21452e-08 -6.62789e-08 -2.45102e-08 -2.18432e-09 -1.62649e-08 -1.7202e-07 -1.43655e-09 -3.89524e-07 -6.49747e-08
          -9.61273e-09 -1.31324e-08 -5.08915e-09 -2.55087e-08 -1.96787e-08 -2.45268e-08 -4.03716e-08 -6.36268e-08 -1.28289e-08 -2.29345e-09 -2.1435e-08 -1.68111e-07
          -1.00639e-09 -3.48368e-07 -7.82748e-08 -1.68378e-08 -9.72261e-09 -2.7767e-09 -2.39708e-08 -3.15811e-08 -2.1721e-08 -4.96247e-08 -5.10134e-08 -5.59327e-09
          -2.70991e-09 -2.68038e-08 -1.65218e-07 -1.22197e-09 -2.94081e-07 -8.14014e-08 -2.44824e-08 -6.28284e-09 -3.86313e-09 -2.73824e-08 -4.7045e-08 -1.82065e-08
          -5.23984e-08 -3.99716e-08 -2.87891e-09 -3.53038e-09 -3.78134e-08 -1.44041e-07 -2.36532e-09 -2.32464e-07 -8.17995e-08 -3.84143e-08 -2.73207e-09 -3.84729e-09
          -2.25313e-08 -7.02132e-08 -1.44286e-08 -5.10231e-08 -3.17004e-08 -1.2507e-09 -2.33813e-09 -5.56092e-08 -1.03216e-07 -3.64179e-09 -1.78394e-07 -8.85257e-08
          -5.81041e-08 -1.96349e-09 -2.61203e-09 -1.46883e-08 -9.20293e-08 -1.12545e-08 -4.57175e-08 -2.24554e-08 -8.99724e-10 -9.53594e-10 -6.8831e-08 -6.54083e-08
          -3.83258e-09 -1.27968e-07 -8.8864e-08 -9.18989e-08 -1.14119e-09 -2.15919e-09 -1.92827e-08 -1.05393e-07 -9.8579e-09 -3.77761e-08 -1.50803e-08 -1.12708e-09
          -4.53826e-10 -7.33501e-08 -3.72048e-08 -3.20184e-09 -9.37686e-08 -5.76917e-08 -1.60376e-07 -2.01822e-09 -3.08775e-09 -2.86855e-08 -1.11942e-07 -1.0619e-08
          -2.88013e-08 -1.016e-08 -1.05259e-09 -9.93248e-11 -6.82144e-08 -1.94854e-08 -2.75106e-09 -7.38682e-08 -2.42331e-08 -2.23385e-07 -3.17996e-09 -5.70091e-09
          -3.48788e-08 -1.17143e-07 -1.22106e-08 -1.80724e-08 -5.16129e-09 -1.70416e-09 -6.48786e-10 -5.04875e-08 -1.33042e-08 -2.70561e-09 -7.0212e-08 -1.32048e-08
          -2.36705e-07 -2.90129e-09 -1.09383e-08 -3.82035e-08 -1.22413e-07 -1.51627e-08 -8.40423e-09 -2.04591e-09 -7.61528e-10 -4.23618e-10 -2.52674e-08 -9.97438e-09
          -2.23187e-09 -7.46212e-08 -1.06853e-08 -2.04275e-07 -4.02562e-09 -1.88512e-08 -5.02181e-08 -1.2767e-07 -1.98074e-08 -2.21727e-09 -4.55414e-10 1.80663e-10
          7.3561e-11 -5.99054e-09 -3.81225e-09 -8.18969e-10 -3.81498e-08 -4.98569e-09 -8.83908e-08 -2.6564e-09 -1.14367e-08 -3.00176e-08 -6.56494e-08 -1.11238e-08
        </DataArray>
        <DataArray type="Float32" Name="velocity[1]" NumberOfComponents="1" format="ascii">
          2.78006e-25 1.08403e-23 6.99635e-26 -3.34584e-24 1.14819e-25 0 5.80878e-25 1.47607e-25 -6.79066e-26 5.48995e-24 -3.43226e-24 -3.61202e-26
          2.14722e-24 -9.23277e-25 3.95564e-25 1.03717e-24 9.37207e-24 6.57953e-26 -5.04526e-24 -1.03217e-25 9.08662e-24 1.29918e-24 1.43791e-25 -8.94717e-24
          1.35355e-26 0 6.51248e-26 -1.02595e-25 -8.8353e-27 2.55273e-25 2.77192e-24 -1.39153e-23 -3.55795e-24 3.13616e-24 8.70196e-26 0
          1.29688e-24 9.63786e-25 -1.07059e-24 0 6.52752e-24 -1.11718e-23 0 9.66226e-25 -2.34614e-25 -5.69056e-24 2.46885e-23 -2.34662e-24
          2.81618e-24 1.15435e-24 1.02973e-23 -1.70242e-23 2.30724e-23 -1.0741e-24 -5.53806e-24 3.44386e-24 -3.81784e-24 2.75399e-24 -1.06837e-24 8.11881e-25
          -1.5449e-25 -7.79661e-23 3.57563e-24 4.36688e-24 6.55539e-25 -4.61455e-26 -1.14838e-24 8.44553e-25 3.55918e-24 -6.36274e-24 5.02059e-24 -7.87317e-24
          -1.93577e-25 9.9436e-26 -1.32495e-24 -6.6852e-25 5.69003e-24 -2.76364e-25 4.85699e-24 -1.20958e-24 6.89236e-25 0 -2.74327e-23 3.27941e-24
          1.71226e-23 -2.93991e-23 8.47465e-24 -8.34742e-25 5.73821e-25 1.33749e-24 -6.96225e-25 -2.94435e-24 0 3.23508e-24 -1.2011e-24 -1.15847e-23
          1.50044e-24 -4.905e-24 4.03974e-25 7.7111e-25 -2.06376e-25 -1.44379e-25 1.70508e-25 -1.6214e-26 -1.43496e-24 -1.55145e-24 1.03074e-23 1.09712e-24
          1.4967e-24 -1.60776e-26 1.29523e-23 5.12744e-25 -2.98846e-25 7.7606e-25 -1.16109e-25 -1.61565e-24 -9.41529e-24 -1.42094e-25 -2.73712e-25 1.64697e-24
          1.2206e-24 -7.31152e-24 -1.87672e-25 -1.64815e-24 -1.54168e-25 1.86374e-24 0 0 5.74893e-25 1.56766e-25 -5.61796e-25 5.29396e-24
          -2.66765e-25 4.40565e-26 8.52443e-27 -8.38133e-24 6.53562e-24 1.11477e-24 -1.41786e-25 -1.7509e-24 2.40929e-24 -4.55894e-24 5.05407e-24 -2.98234e-25
          -2.44502e-25 4.85832e-25 5.62624e-24 -6.37041e-25 0 -1.79403e-24 -1.47077e-25 -6.67148e-25 1.68248e-24 -4.19063e-26 1.84947e-24 -1.16419e-26
          -3.05616e-24 8.33616e-24 1.60241e-25 5.34439e-26 -6.48774e-25 2.15593e-24 1.24066e-24 -8.5879e-26 4.29395e-26 -2.1484e-24 1.20431e-24 1.07032e-25
          7.00817e-27 -1.28729e-24 -1.55489e-23 2.49292e-26 6.67161e-25 -1.98751e-24 -9.26395e-26 5.54194e-25 1.31893e-24 -5.00706e-25 5.72212e-25 -3.33249e-26
          2.35861e-24 3.97445e-24 0 -4.03598e-26 4.07215e-25 1.88081e-24 5.03533e-26 -1.03303e-24 -2.67172e-24 8.31747e-28 -1.26179e-24 -5.73737e-25
          9.5988e-25 -4.99801e-25 -4.2323e-27 2.81853e-25 -4.63969e-27 5.15131e-25 -9.09577e-26 1.96927e-26 1.31204e-23 -2.60414e-26 -3.7621e-24 4.98336e-24
          -1.21264e-24 1.26711e-24 1.64389e-24 -3.28164e-24 3.75949e-27 -1.8084e-24 -2.63277e-24 -4.48068e-24 5.06305e-27 1.90258e-25 4.34353e-25 -1.02739e-26
          -2.91637e-26 -6.50168e-24 1.7138e-24 0 0 2.17176e-25 2.83789e-24 -3.85126e-25 3.37878e-24 0 1.01755e-24 0
          -2.54981e-25 4.14428e-25 -9.06746e-27 6.26686e-26 -5.79478e-24 6.38912e-27 5.56441e-27 5.36272e-27 3.0897e-24 5.81182e-27 -9.0962e-25 -1.56126e-24
          -2.08002e-27 7.01049e-25 3.74247e-27 -4.65087e-26 1.31744e-24 -7.42703e-24 0 -7.72536e-24 0 -5.21596e-27 2.28008e-24 -2.81913e-24
          -1.25406e-24 -1.75102e-27 9.76631e-25 0 2.75678e-24 0 2.93878e-25 1.31766e-24 3.57123e-24 7.52596e-26 -4.626e-24 -3.99167e-24
          -1.56478e-24 1.35867e-25 4.13058e-26 2.06992e-27 -1.29985e-24 -7.72455e-25 3.24193e-24 -1.68592e-24 1.82448e-24 -1.49135e-24 6.0599e-25 6.30145e-24
          -4.57989e-26 -3.21088e-24 7.44426e-24 4.04297e-24 -2.43808e-24 5.00562e-26 6.75649e-25 1.19624e-27 7.59578e-25 2.46774e-27 -2.96106e-24 6.45081e-25
          -1.35664e-24 1.9871e-25 -1.96093e-24 -9.63914e-26 -4.20034e-24 -3.78639e-24 6.94669e-24 1.94325e-25 2.60226e-24 7.88646e-25 -2.59931e-25 -6.28417e-25
          -7.81794e-25 4.69104e-25 0 -2.54842e-26 -9.00335e-25 3.32029e-24 -5.82863e-24 5.84731e-24 -4.20635e-24 -3.95794e-27 0 0
          1.74194e-25 5.63227e-28 1.00693e-24 -8.85609e-25 -9.42453e-25 8.62297e-25 -1.45796e-24 -5.38156e-25 -9.50359e-25 3.7029e-27 4.21188e-25 -2.76221e-24
          9.89859e-24 -1.84064e-25 -4.73776e-24 3.43047e-25 6.84448e-25 1.0283e-27 -6.14462e-25 -2.6951e-27 -3.3415e-27 7.63985e-26 -2.07045e-24 3.7238e-25
          -9.23036e-26 7.53855e-24 -3.12223e-24 0 -2.00044e-25 -6.25681e-25 4.83102e-24 -5.63996e-25 0 -3.47016e-25 -2.69353e-27 -2.87395e-25
          4.81389e-25 -9.25469e-25 -1.59912e-24 -2.68919e-25 -1.96246e-24 7.74836e-25 -2.15022e-23 0 2.14955e-23 -1.57434e-23 1.29895e-23 3.26651e-25
        </DataArray>
        <DataArray type="Float32" Name="velocity[2]" NumberOfComponents="1" format="ascii">
          -2.32718e-10 8.70131e-09 -6.06324e-09 -8.68148e-09 -3.89319e-09 -4.08134e-09 -4.08576e-09 -3.5038e-09 -3.58288e-09 -3.474e-09 -3.09094e-09 -2.96656e-09
          -2.4998e-09 -1.90014e-09 -1.26786e-09 -1.3787e-09 3.22903e-08 -5.13742e-09 -1.69924e-08 -2.3008e-09 -2.54569e-09 -3.01046e-09 -3.46257e-09 -4.38269e-09
          -4.35829e-09 -3.43113e-09 -4.6435e-09 -3.0602e-09 -1.52471e-09 -1.70393e-09 -4.9488e-09 5.35345e-08 -1.73232e-09 -1.8825e-08 -4.5456e-09 -3.92793e-09
          -4.69011e-09 -5.46917e-09 -6.8618e-09 -5.93763e-09 -4.04278e-09 -7.63944e-09 -3.47545e-09 -1.99405e-09 -2.26467e-09 -7.43874e-09 5.73963e-08 -3.65522e-10
          -8.76902e-09 -6.59076e-09 -7.98825e-09 -9.54902e-09 -8.38403e-09 -7.26116e-09 -7.41359e-09 -3.47884e-09 -1.07966e-08 -2.55006e-09 -2.2252e-09 -2.91001e-09
          -8.6898e-09 1.82701e-08 1.10153e-09 -1.40563e-08 -5.77282e-09 -1.32392e-08 -1.64394e-08 -1.55833e-08 -3.56924e-09 -4.10966e-09 -3.6338e-09 -1.88175e-08
          -1.17305e-09 -1.45458e-09 -3.15511e-09 -2.15616e-08 -2.70628e-08 -1.84908e-09 -2.12386e-08 -8.65774e-09 -2.30549e-08 -1.94062e-08 -1.96624e-08 3.51457e-10
          -2.71178e-09 -6.59853e-09 -2.46092e-08 -8.40787e-10 -1.11779e-09 -3.35397e-09 -2.39214e-08 -2.6369e-08 -1.47699e-09 -8.17285e-09 -6.4421e-09 -2.97895e-08
          -1.03047e-08 -2.2712e-08 -3.3765e-09 -2.72672e-09 -3.51103e-09 -2.5385e-08 -6.88032e-10 -9.32182e-10 -3.4688e-09 -2.17396e-08 -2.4055e-08 -1.65075e-09
          -2.44683e-09 -3.49083e-09 -3.46489e-08 -6.43342e-09 -3.69125e-08 -1.45049e-09 -6.67921e-10 -2.79818e-09 -2.45182e-08 -8.13283e-10 -1.19051e-09 -3.86274e-09
          -1.8809e-08 -2.10291e-08 -1.80527e-09 -1.17828e-09 -2.35948e-09 -3.57154e-08 -3.1248e-09 -4.85231e-08 -5.62097e-10 -2.21724e-10 -3.26511e-09 -1.9876e-08
          -7.77996e-10 -1.09016e-09 -4.20062e-09 -1.66384e-08 -2.004e-08 -5.28555e-09 -1.06445e-09 -1.89086e-09 -3.58647e-08 -2.14503e-09 -5.93004e-08 -3.90965e-10
          -1.58382e-10 -6.72377e-09 -1.11281e-08 -1.09337e-09 -1.03953e-09 -4.53503e-09 -1.0072e-08 -1.42341e-08 -9.38072e-09 -1.38197e-09 -1.91013e-09 -3.54337e-08
          -1.2308e-09 -6.93702e-08 -3.51859e-10 -6.87353e-11 -9.14132e-09 -8.00476e-09 -1.47467e-09 -1.01902e-09 -4.55278e-09 -5.94684e-09 -1.04857e-08 -9.9471e-09
          -1.32862e-09 -2.1849e-09 -3.57567e-08 -9.01493e-10 -7.51429e-08 -2.23331e-09 -2.35605e-10 -5.70336e-09 -6.56737e-09 -2.52086e-09 -1.27065e-09 -4.63261e-09
          -5.0231e-09 -9.57552e-09 -7.18637e-09 -1.13815e-09 -2.7024e-09 -3.42499e-08 -1.96515e-09 -7.60056e-08 -7.49724e-09 -8.2698e-10 -4.25908e-09 -4.24565e-09
          -5.127e-09 -2.19461e-09 -4.49654e-09 -5.54681e-09 -1.1275e-08 -4.3207e-09 -9.52997e-10 -3.30174e-09 -3.08047e-08 -9.06092e-10 -6.998e-08 -1.27419e-08
          -2.16185e-09 -2.83105e-09 -1.75541e-09 -5.61013e-09 -3.67326e-09 -3.91429e-09 -6.68875e-09 -1.06652e-08 -2.45197e-09 -1.0431e-09 -4.28264e-09 -3.00229e-08
          -5.8609e-10 -6.22982e-08 -1.49979e-08 -3.90496e-09 -2.53584e-09 -1.33122e-09 -5.06202e-09 -5.4425e-09 -3.29123e-09 -8.56128e-09 -8.94528e-09 -1.45801e-09
          -1.11718e-09 -5.20506e-09 -2.95955e-08 -7.86566e-10 -5.34132e-08 -1.6851e-08 -6.58852e-09 -3.41344e-09 -3.12709e-09 -6.99259e-09 -8.62477e-09 -2.56585e-09
          -9.24492e-09 -7.28455e-09 -1.01519e-09 -1.1659e-09 -6.75351e-09 -2.59126e-08 -1.78757e-09 -4.29929e-08 -1.7111e-08 -9.11601e-09 -2.46695e-09 -2.75605e-09
          -6.66023e-09 -1.33706e-08 -1.91978e-09 -9.08532e-09 -5.95604e-09 -8.76145e-10 -1.24206e-09 -1.02093e-08 -1.91385e-08 -2.60883e-09 -3.41927e-08 -1.87116e-08
          -1.25118e-08 -2.23958e-09 -2.39057e-09 -4.5117e-09 -1.67392e-08 -1.54325e-09 -8.32755e-09 -4.76828e-09 -1.1781e-09 -1.12193e-09 -1.28863e-08 -1.28132e-08
          -2.70027e-09 -2.51523e-08 -1.9228e-08 -1.92339e-08 -2.30957e-09 -2.53748e-09 -5.28975e-09 -1.9355e-08 -1.70841e-09 -6.92395e-09 -3.28266e-09 -9.67513e-10
          -9.28142e-10 -1.37791e-08 -7.95888e-09 -2.55846e-09 -1.88983e-08 -1.43545e-08 -3.21289e-08 -2.33687e-09 -2.37116e-09 -6.47263e-09 -2.05575e-08 -2.1522e-09
          -5.41507e-09 -2.61625e-09 -1.12316e-09 -9.07925e-10 -1.32216e-08 -5.18496e-09 -2.48484e-09 -1.52018e-08 -7.17628e-09 -4.212e-08 -2.57015e-09 -2.94341e-09
          -7.93358e-09 -2.17585e-08 -2.40117e-09 -3.56773e-09 -1.77194e-09 -1.24848e-09 -1.0333e-09 -1.04446e-08 -4.57428e-09 -2.7514e-09 -1.45808e-08 -4.56711e-09
          -4.42867e-08 -3.26923e-09 -4.46511e-09 -8.8937e-09 -2.3325e-08 -3.40778e-09 -1.74765e-09 -9.49798e-10 -8.80117e-10 -9.50226e-10 -6.07205e-09 -4.19773e-09
          -2.96139e-09 -1.56989e-08 -4.42598e-09 -3.97075e-08 -5.41672e-09 -7.70973e-09 -1.23453e-08 -2.47434e-08 -4.30574e-09 -5.39837e-10 -4.01659e-10 -2.99192e-10
          -3.02218e-10 -1.691e-09 -1.80834e-09 -1.48365e-09 -9.10728e-09 -4.57903e-09 -2.31213e-08 -9.91676e-09 -8.68182e-09 -9.88879e-09 -1.37711e-08 -2.3118e-09
        </DataArray>
        <DataArray type="Float32" Name="z[0]" NumberOfComponents="1" format="ascii">
          0.150578 0.150579 0.15058 0.150582 0.150582 0.150583 0.150584 0.150585 0.150585 0.150586 0.150587 0.150588
          0.150589 0.150591 0.150596 0.150581 0.150582 0.150583 0.150585 0.150586 0.150587 0.150587 0.150588 0.150588
          0.150589 0.15059 0.150591 0.150593 0.150595 0.150599 0.150584 0.150585 0.150587 0.150588 0.150589 0.15059
          0.15202 0.156255 0.150592 0.150593 0.150593 0.150595 0.150596 0.150598 0.150602 0.150588 0.150589 0.15059
          0.150591 0.17001 0.315032 0.389638 0.380361 0.150595 0.150596 0.150597 0.150598 0.150599 0.150601 0.150605
          0.150591 0.150592 0.254644 0.441961 0.454145 0.457035 0.435774 0.401274 0.150598 0.150599 0.1506 0.150601
          0.150602 0.150604 0.150609 0.150594 0.150596 0.246253 0.470894 0.483132 0.483557 0.46299 0.433184 0.161618
          0.150602 0.150603 0.150604 0.150605 0.150607 0.150612 0.150597 0.150604 0.252525 0.481091 0.492395 0.494673