<?xml version="1.0"?>
<VTKFile type="UnstructuredGrid" version="0.1" byte_order="LittleEndian">
  <UnstructuredGrid>
    <Piece NumberOfCells="360" NumberOfPoints="800">
      <CellData Scalars="pressure[0]">
        <DataArray type="Float32" Name="pressure[0]" NumberOfComponents="1" format="ascii">
          2.10982e+07 2.11127e+07 2.18014e+07 2.25014e+07 2.28906e+07 2.32998e+07 2.3427e+07 2.34743e+07 2.35323e+07 2.35958e+07 2.37674e+07 2.40506e+07
          2.42601e+07 2.48473e+07 2.55675e+07 2.1143e+07 2.11577e+07 2.19174e+07 2.2652e+07 2.30696e+07 2.34784e+07 2.35716e+07 2.36086e+07 2.3668e+07
          2.37389e+07 2.39749e+07 2.42607e+07 2.44331e+07 2.50412e+07 2.57327e+07 2.12403e+07 2.12877e+07 2.20253e+07 2.28013e+07 2.31765e+07 2.35596e+07
          2.36712e+07 2.37244e+07 2.38005e+07 2.38953e+07 2.42116e+07 2.45343e+07 2.471e+07 2.52792e+07 2.594e+07 2.13696e+07 2.14162e+07 2.18827e+07
          2.29368e+07 2.33141e+07 2.36847e+07 2.37858e+07 2.38335e+07 2.39463e+07 2.40884e+07 2.45072e+07 2.48896e+07 2.50669e+07 2.55617e+07 2.61965e+07
          2.15013e+07 2.15235e+07 1.98086e+07 2.30375e+07 2.3519e+07 2.39053e+07 2.39704e+07 2.40055e+07 2.41786e+07 2.44334e+07 2.48709e+07 2.52329e+07
          2.54161e+07 2.58806e+07 2.64489e+07 2.17066e+07 2.17495e+07 2.24059e+07 2.35941e+07 2.39198e+07 2.41671e+07 2.42097e+07 2.42453e+07 2.44674e+07
          2.48634e+07 2.5308e+07 2.55433e+07 2.57409e+07 2.62009e+07 2.67312e+07 2.19727e+07 2.20239e+07 2.31605e+07 2.40648e+07 2.42714e+07 2.44375e+07
          2.44767e+07 2.45097e+07 2.47235e+07 2.52675e+07 2.57095e+07 2.58182e+07 2.6007e+07 2.65476e+07 2.7122e+07 2.23574e+07 2.24132e+07 2.35557e+07
          2.44012e+07 2.45876e+07 2.47034e+07 2.473e+07 2.4751e+07 2.50257e+07 2.55984e+07 2.5981e+07 2.60692e+07 2.63211e+07 2.69075e+07 2.76597e+07
          2.2918e+07 2.29821e+07 2.38975e+07 2.46768e+07 2.48958e+07 2.49902e+07 2.50446e+07 2.52004e+07 2.55094e+07 2.60214e+07 2.62726e+07 2.63155e+07
          2.65727e+07 2.73187e+07 2.81976e+07 2.35964e+07 2.3701e+07 2.41951e+07 2.47849e+07 2.51623e+07 2.52434e+07 2.53643e+07 2.58145e+07 2.60703e+07
          2.64502e+07 2.66322e+07 2.66704e+07 2.69448e+07 2.77391e+07 2.85204e+07 2.43682e+07 2.4484e+07 2.47417e+07 2.51036e+07 2.53867e+07 2.54463e+07
          2.56369e+07 2.63998e+07 2.66142e+07 2.68586e+07 2.7006e+07 2.70569e+07 2.72992e+07 2.80977e+07 2.87603e+07 2.51038e+07 2.51737e+07 2.52828e+07
          2.54604e+07 2.56068e+07 2.56422e+07 2.59025e+07 2.70218e+07 2.71538e+07 2.72885e+07 2.73947e+07 2.74603e+07 2.77152e+07 2.84655e+07 2.90172e+07
          2.5663e+07 2.57104e+07 2.57377e+07 2.58619e+07 2.59227e+07 2.59054e+07 2.67105e+07 2.75846e+07 2.76275e+07 2.77513e+07 2.78526e+07 2.79744e+07
          2.82163e+07 2.88442e+07 2.96846e+07 2.61104e+07 2.61604e+07 2.62191e+07 2.65295e+07 2.6715e+07 2.68598e+07 2.75034e+07 2.82081e+07 2.82571e+07
          2.82898e+07 2.83219e+07 2.84843e+07 2.95947e+07 3.03259e+07 3.01375e+07 2.64691e+07 2.65095e+07 2.6784e+07 2.72871e+07 2.76528e+07 2.78364e+07
          2.82676e+07 2.87398e+07 2.87878e+07 2.88404e+07 2.88877e+07 2.97987e+07 3.06604e+07 3.08467e+07 3.06922e+07 2.67826e+07 2.68431e+07 2.72878e+07
          2.78031e+07 2.8415e+07 2.85066e+07 2.8846e+07 2.90965e+07 2.91488e+07 2.923e+07 2.95408e+07 3.04093e+07 3.10679e+07 3.14236e+07 3.12208e+07
          2.75656e+07 2.75737e+07 2.77922e+07 2.87476e+07 2.8987e+07 2.90286e+07 2.91897e+07 2.93363e+07 2.93867e+07 2.94535e+07 2.99119e+07 3.09483e+07
          3.16461e+07 3.19898e+07 3.17071e+07 2.83359e+07 2.83883e+07 2.8756e+07 2.91453e+07 2.9313e+07 2.93587e+07 2.9477e+07 2.95792e+07 2.96321e+07
          2.96927e+07 3.02665e+07 3.13677e+07 3.20806e+07 3.23564e+07 3.21941e+07 2.8683e+07 2.87506e+07 2.89971e+07 2.93871e+07 2.95873e+07 2.96364e+07
          2.97341e+07 2.98185e+07 2.98665e+07 2.99245e+07 3.05582e+07 3.17792e+07 3.25104e+07 3.27111e+07 3.28808e+07 2.89562e+07 2.90161e+07 2.92447e+07
          2.96277e+07 2.98203e+07 2.98698e+07 2.99613e+07 3.00383e+07 3.00868e+07 3.01525e+07 3.07806e+07 3.21285e+07 3.29335e+07 3.30864e+07 3.35343e+07
          2.91799e+07 2.92498e+07 2.94303e+07 2.97821e+07 3.00229e+07 3.00783e+07 3.0175e+07 3.02546e+07 3.03229e+07 3.0409e+07 3.13014e+07 3.27442e+07
          3.33241e+07 3.3487e+07 3.40405e+07 2.93925e+07 2.94657e+07 2.96251e+07 2.99681e+07 3.02134e+07 3.02752e+07 3.03869e+07 3.04774e+07 3.05687e+07
          3.067e+07 3.18778e+07 3.33772e+07 3.37299e+07 3.3933e+07 3.45336e+07 2.95828e+07 2.96485e+07 2.98436e+07 3.02055e+07 3.04036e+07 3.04762e+07
          3.06081e+07 3.07133e+07 3.08334e+07 3.09622e+07 3.23625e+07 3.38951e+07 3.41955e+07 3.44256e+07 3.48805e+07 2.97533e+07 2.98151e+07 2.99843e+07
          3.03466e+07 3.06034e+07 3.0678e+07 3.08271e+07 3.09503e+07 3.10985e+07 3.12749e+07 3.2901e+07 3.4342e+07 3.46766e+07 3.48828e+07 3.51843e+07
        </DataArray>
        <DataArray type="Float32" Name="pressure[1]" NumberOfComponents="1" format="ascii">
          2.10982e+07 2.11127e+07 2.18014e+07 2.25014e+07 2.28906e+07 2.32998e+07 2.3427e+07 2.34743e+07 2.35323e+07 2.35958e+07 2.37674e+07 2.40506e+07
          2.42601e+07 2.48473e+07 2.55675e+07 2.1143e+07 2.11577e+07 2.19174e+07 2.2652e+07 2.30696e+07 2.34784e+07 2.35716e+07 2.36086e+07 2.3668e+07
          2.37389e+07 2.39749e+07 2.42607e+07 2.44331e+07 2.50412e+07 2.57327e+07 2.12403e+07 2.12877e+07 2.20253e+07 2.28013e+07 2.31765e+07 2.35596e+07
          2.36712e+07 2.37244e+07 2.38005e+07 2.38953e+07 2.42116e+07 2.45343e+07 2.471e+07 2.52792e+07 2.594e+07 2.13696e+07 2.14162e+07 2.18827e+07
          2.29368e+07 2.33141e+07 2.36847e+07 2.37858e+07 2.38335e+07 2.39463e+07 2.40884e+07 2.45072e+07 2.48896e+07 2.50669e+07 2.55617e+07 2.61965e+07
          2.15013e+07 2.15235e+07 1.98086e+07 2.30375e+07 2.3519e+07 2.39053e+07 2.39704e+07 2.40055e+07 2.41786e+07 2.44334e+07 2.48709e+07 2.52329e+07
          2.54161e+07 2.58806e+07 2.64489e+07 2.17066e+07 2.17495e+07 2.24059e+07 2.35941e+07 2.39198e+07 2.41671e+07 2.42097e+07 2.42453e+07 2.44674e+07
          2.48634e+07 2.5308e+07 2.55433e+07 2.57409e+07 2.62009e+07 2.67312e+07 2.19727e+07 2.20239e+07 2.31605e+07 2.40648e+07 2.42714e+07 2.44375e+07
          2.44767e+07 2.45097e+07 2.47235e+07 2.52675e+07 2.57095e+07 2.58182e+07 2.6007e+07 2.65476e+07 2.7122e+07 2.23574e+07 2.24132e+07 2.35557e+07
          2.44012e+07 2.45876e+07 2.47034e+07 2.473e+07 2.4751e+07 2.50257e+07 2.55984e+07 2.5981e+07 2.60692e+07 2.63211e+07 2.69075e+07 2.76597e+07
          2.2918e+07 2.29821e+07 2.38975e+07 2.46768e+07 2.48958e+07 2.49902e+07 2.50446e+07 2.52004e+07 2.55094e+07 2.60214e+07 2.62726e+07 2.63155e+07
          2.65727e+07 2.73187e+07 2.81976e+07 2.35964e+07 2.3701e+07 2.41951e+07 2.47849e+07 2.51623e+07 2.52434e+07 2.53643e+07 2.58145e+07 2.60703e+07
          2.64502e+07 2.66322e+07 2.66704e+07 2.69448e+07 2.77391e+07 2.85204e+07 2.43682e+07 2.4484e+07 2.47417e+07 2.51036e+07 2.53867e+07 2.54463e+07
          2.56369e+07 2.63998e+07 2.66142e+07 2.68586e+07 2.7006e+07 2.70569e+07 2.72992e+07 2.80977e+07 2.87603e+07 2.51038e+07 2.51737e+07 2.52828e+07
          2.54604e+07 2.56068e+07 2.56422e+07 2.59025e+07 2.70218e+07 2.71538e+07 2.72885e+07 2.73947e+07 2.74603e+07 2.77152e+07 2.84655e+07 2.90172e+07
          2.5663e+07 2.57104e+07 2.57377e+07 2.58619e+07 2.59227e+07 2.59054e+07 2.67105e+07 2.75846e+07 2.76275e+07 2.77513e+07 2.78526e+07 2.79744e+07
          2.82163e+07 2.88442e+07 2.96846e+07 2.61104e+07 2.61604e+07 2.62191e+07 2.65295e+07 2.6715e+07 2.68598e+07 2.75034e+07 2.82081e+07 2.82571e+07
          2.82898e+07 2.83219e+07 2.84843e+07 2.95947e+07 3.03259e+07 3.01375e+07 2.64691e+07 2.65095e+07 2.6784e+07 2.72871e+07 2.76528e+07 2.78364e+07
          2.82676e+07 2.87398e+07 2.87878e+07 2.88404e+07 2.88877e+07 2.97987e+07 3.06604e+07 3.08467e+07 3.06922e+07 2.67826e+07 2.68431e+07 2.72878e+07
          2.78031e+07 2.8415e+07 2.85066e+07 2.8846e+07 2.90965e+07 2.91488e+07 2.923e+07 2.95408e+07 3.04093e+07 3.10679e+07 3.14236e+07 3.12208e+07
          2.75656e+07 2.75737e+07 2.77922e+07 2.87476e+07 2.8987e+07 2.90286e+07 2.91897e+07 2.93363e+07 2.93867e+07 2.94535e+07 2.99119e+07 3.09483e+07
          3.16461e+07 3.19898e+07 3.17071e+07 2.83359e+07 2.83883e+07 2.8756e+07 2.91453e+07 2.9313e+07 2.93587e+07 2.9477e+07 2.95792e+07 2.96321e+07
          2.96927e+07 3.02665e+07 3.13677e+07 3.20806e+07 3.23564e+07 3.21941e+07 2.8683e+07 2.87506e+07 2.89971e+07 2.93871e+07 2.95873e+07 2.96364e+07
          2.97341e+07 2.98185e+07 2.98665e+07 2.99245e+07 3.05582e+07 3.17792e+07 3.25104e+07 3.27111e+07 3.28808e+07 2.89562e+07 2.90161e+07 2.92447e+07
          2.96277e+07 2.98203e+07 2.98698e+07 2.99613e+07 3.00383e+07 3.00868e+07 3.01525e+07 3.07806e+07 3.21285e+07 3.29335e+07 3.30864e+07 3.35343e+07
          2.91799e+07 2.92498e+07 2.94303e+07 2.97821e+07 3.00229e+07 3.00783e+07 3.0175e+07 3.02546e+07 3.03229e+07 3.0409e+07 3.13014e+07 3.27442e+07
          3.33241e+07 3.3487e+07 3.40405e+07 2.93925e+07 2.94657e+07 2.96251e+07 2.99681e+07 3.02134e+07 3.02752e+07 3.03869e+07 3.04774e+07 3.05687e+07
          3.067e+07 3.18778e+07 3.33772e+07 3.37299e+07 3.3933e+07 3.45336e+07 2.95828e+07 2.96485e+07 2.98436e+07 3.02055e+07 3.04036e+07 3.04762e+07
          3.06081e+07 3.07133e+07 3.08334e+07 3.09622e+07 3.23625e+07 3.38951e+07 3.41955e+07 3.44256e+07 3.48805e+07 2.97533e+07 2.98151e+07 2.99843e+07
          3.03466e+07 3.06034e+07 3.0678e+07 3.08271e+07 3.09503e+07 3.10985e+07 3.12749e+07 3.2901e+07 3.4342e+07 3.46766e+07 3.48828e+07 3.51843e+07
        </DataArray>
        <DataArray type="Float32" Name="pressure[2]" NumberOfComponents="1" format="ascii">
          2.10982e+07 2.11127e+07 2.18014e+07 2.25014e+07 2.28906e+07 2.32998e+07 2.3427e+07 2.34743e+07 2.35323e+07 2.35958e+07 2.37674e+07 2.40506e+07
          2.42601e+07 2.48473e+07 2.55675e+07 2.1143e+07 2.11577e+07 2.19174e+07 2.2652e+07 2.30696e+07 2.34784e+07 2.35716e+07 2.36086e+07 2.3668e+07
          2.37389e+07 2.39749e+07 2.42607e+07 2.44331e+07 2.50412e+07 2.57327e+07 2.12403e+07 2.12877e+07 2.20253e+07 2.28013e+07 2.31765e+07 2.35596e+07
          2.36712e+07 2.37244e+07 2.38005e+07 2.38953e+07 2.42116e+07 2.45343e+07 2.471e+07 2.52792e+07 2.594e+07 2.13696e+07 2.14162e+07 2.18827e+07
          2.29368e+07 2.33141e+07 2.36847e+07 2.37858e+07 2.38335e+07 2.39463e+07 2.40884e+07 2.45072e+07 2.48896e+07 2.50669e+07 2.55617e+07 2.61965e+07
          2.15013e+07 2.15235e+07 1.98086e+07 2.30375e+07 2.3519e+07 2.39053e+07 2.39704e+07 2.40055e+07 2.41786e+07 2.44334e+07 2.48709e+07 2.52329e+07
          2.54161e+07 2.58806e+07 2.64489e+07 2.17066e+07 2.17495e+07 2.24059e+07 2.35941e+07 2.39198e+07 2.41671e+07 2.42097e+07 2.42453e+07 2.44674e+07
          2.48634e+07 2.5308e+07 2.55433e+07 2.57409e+07 2.62009e+07 2.67312e+07 2.19727e+07 2.20239e+07 2.31605e+07 2.40648e+07 2.42714e+07 2.44375e+07
          2.44767e+07 2.45097e+07 2.47235e+07 2.52675e+07 2.57095e+07 2.58182e+07 2.6007e+07 2.65476e+07 2.7122e+07 2.23574e+07 2.24132e+07 2.35557e+07
          2.44012e+07 2.45876e+07 2.47034e+07 2.473e+07 2.4751e+07 2.50257e+07 2.55984e+07 2.5981e+07 2.60692e+07 2.63211e+07 2.69075e+07 2.76597e+07
          2.2918e+07 2.29821e+07 2.38975e+07 2.46768e+07 2.48958e+07 2.49902e+07 2.50446e+07 2.52004e+07 2.55094e+07 2.60214e+07 2.62726e+07 2.63155e+07
          2.65727e+07 2.73187e+07 2.81976e+07 2.35964e+07 2.3701e+07 2.41951e+07 2.47849e+07 2.51623e+07 2.52434e+07 2.53643e+07 2.58145e+07 2.60703e+07
          2.64502e+07 2.66322e+07 2.66704e+07 2.69448e+07 2.77391e+07 2.85204e+07 2.43682e+07 2.4484e+07 2.47417e+07 2.51036e+07 2.53867e+07 2.54463e+07
          2.56369e+07 2.63998e+07 2.66142e+07 2.68586e+07 2.7006e+07 2.70569e+07 2.72992e+07 2.80977e+07 2.87603e+07 2.51038e+07 2.51737e+07 2.52828e+07
          2.54604e+07 2.56068e+07 2.56422e+07 2.59025e+07 2.70218e+07 2.71538e+07 2.72885e+07 2.73947e+07 2.74603e+07 2.77152e+07 2.84655e+07 2.90172e+07
          2.5663e+07 2.57104e+07 2.57377e+07 2.58619e+07 2.59227e+07 2.59054e+07 2.67105e+07 2.75846e+07 2.76275e+07 2.77513e+07 2.78526e+07 2.79744e+07
          2.82163e+07 2.88442e+07 2.96846e+07 2.61104e+07 2.61604e+07 2.62191e+07 2.65295e+07 2.6715e+07 2.68598e+07 2.75034e+07 2.82081e+07 2.82571e+07
          2.82898e+07 2.83219e+07 2.84843e+07 2.95947e+07 3.03259e+07 3.01375e+07 2.64691e+07 2.65095e+07 2.6784e+07 2.72871e+07 2.76528e+07 2.78364e+07
          2.82676e+07 2.87398e+07 2.87878e+07 2.88404e+07 2.88877e+07 2.97987e+07 3.06604e+07 3.08467e+07 3.06922e+07 2.67826e+07 2.68431e+07 2.72878e+07
          2.78031e+07 2.8415e+07 2.85066e+07 2.8846e+07 2.90965e+07 2.91488e+07 2.923e+07 2.95408e+07 3.04093e+07 3.10679e+07 3.14236e+07 3.12208e+07
          2.75656e+07 2.75737e+07 2.77922e+07 2.87476e+07 2.8987e+07 2.90286e+07 2.91897e+07 2.93363e+07 2.93867e+07 2.94535e+07 2.99119e+07 3.09483e+07
          3.16461e+07 3.19898e+07 3.17071e+07 2.83359e+07 2.83883e+07 2.8756e+07 2.91453e+07 2.9313e+07 2.93587e+07 2.9477e+07 2.95792e+07 2.96321e+07
          2.96927e+07 3.02665e+07 3.13677e+07 3.20806e+07 3.23564e+07 3.21941e+07 2.8683e+07 2.87506e+07 2.89971e+07 2.93871e+07 2.95873e+07 2.96364e+07
          2.97341e+07 2.98185e+07 2.98665e+07 2.99245e+07 3.05582e+07 3.17792e+07 3.25104e+07 3.27111e+07 3.28808e+07 2.89562e+07 2.90161e+07 2.92447e+07
          2.96277e+07 2.98203e+07 2.98698e+07 2.99613e+07 3.00383e+07 3.00868e+07 3.01525e+07 3.07806e+07 3.21285e+07 3.29335e+07 3.30864e+07 3.35343e+07
          2.91799e+07 2.92498e+07 2.94303e+07 2.97821e+07 3.00229e+07 3.00783e+07 3.0175e+07 3.02546e+07 3.03229e+07 3.0409e+07 3.13014e+07 3.27442e+07
          3.33241e+07 3.3487e+07 3.40405e+07 2.93925e+07 2.94657e+07 2.96251e+07 2.99681e+07 3.02134e+07 3.02752e+07 3.03869e+07 3.04774e+07 3.05687e+07
          3.067e+07 3.18778e+07 3.33772e+07 3.37299e+07 3.3933e+07 3.45336e+07 2.95828e+07 2.96485e+07 2.98436e+07 3.02055e+07 3.04036e+07 3.04762e+07
          3.06081e+07 3.07133e+07 3.08334e+07 3.09622e+07 3.23625e+07 3.38951e+07 3.41955e+07 3.44256e+07 3.48805e+07 2.97533e+07 2.98151e+07 2.99843e+07
          3.03466e+07 3.06034e+07 3.0678e+07 3.08271e+07 3.09503e+07 3.10985e+07 3.12749e+07 3.2901e+07 3.4342e+07 3.46766e+07 3.48828e+07 3.51843e+07
        </DataArray>
        <DataArray type="Float32" Name="velocity[0]" NumberOfComponents="1" format="ascii">
          -2.58869e-09 4.3571e-08 1.35588e-10 -4.71297e-09 -3.55737e-10 -1.47831e-09 -5.93458e-10 1.14273e-09 1.79932e-09 -3.0861e-10 -1.79354e-09 -2.4276e-09
          -1.68795e-09 -5.79433e-10 -2.51907e-09 -1.41889e-08 1.32772e-07 2.50301e-10 -2.02218e-08 -4.09032e-11 1.54648e-09 7.47883e-09 5.2546e-09 3.91473e-09
          -2.20759e-09 -3.74325e-09 -1.04459e-08 -6.43455e-09 -1.70085e-09 -6.67335e-09 -1.94323e-08 1.84493e-07 1.04206e-09 7.44766e-10 3.70682e-10 4.27461e-09
          1.27547e-08 9.39435e-09 1.67324e-09 -5.76812e-09 -4.3954e-09 -2.62466e-08 -9.18423e-09 -3.56132e-09 -9.99472e-09 -1.3543e-08 1.94484e-07 7.5925e-09
          8.46064e-08 -1.85567e-09 -1.02726e-08 -8.40448e-09 -2.44665e-09 -4.49071e-09 -1.27584e-08 -5.57933e-09 -4.50734e-08 -6.53547e-09 -5.2156e-09 -1.36452e-08
          -9.58339e-08 -3.13437e-08 -2.99263e-10 -1.34722e-07 -1.55639e-08 -6.18302e-08 -6.93798e-08 -5.33558e-08 -6.98746e-09 -1.30602e-08 -7.90634e-09 -7.62055e-08
          -3.29135e-09 -4.77901e-09 -1.68326e-08 -1.89636e-07 -2.36745e-07 -8.56174e-09 -2.82798e-07 -3.37494e-08 -1.86651e-07 -1.06294e-07 -1.48778e-07 -4.5589e-09
          -5.74768e-09 -1.19246e-08 -1.1065e-07 -1.92989e-09 -3.80665e-09 -1.89822e-08 -1.89904e-07 -2.04512e-07 -2.49086e-09 -9.27297e-08 -3.22157e-08 -3.29405e-07
          -8.62616e-08 -2.46846e-07 -3.39342e-09 -2.45856e-09 -1.46314e-08 -1.34709e-07 -1.69552e-09 -3.76575e-09 -2.04767e-08 -1.71517e-07 -1.86113e-07 -2.00872e-09
          -1.57351e-08 -2.04948e-08 -4.28427e-07 -5.64187e-08 -2.49329e-07 -4.23226e-09 -2.19451e-09 -1.69863e-08 -1.53124e-07 -1.43008e-09 -3.90875e-09 -2.21664e-08
          -1.53487e-07 -1.66261e-07 -2.46712e-09 -2.4532e-09 -1.44923e-08 -4.65216e-07 -2.67115e-08 -2.52976e-07 -4.61459e-09 -2.75412e-09 -2.96773e-08 -1.51184e-07
          -1.40462e-09 -3.58004e-09 -2.43926e-08 -1.24418e-07 -1.52691e-07 -8.90809e-09 -5.38039e-10 -1.06064e-08 -4.37026e-07 -8.4361e-09 -3.52129e-07 -4.84108e-09
          -3.15903e-09 -5.15153e-08 -1.31189e-07 -2.34214e-09 -3.09409e-09 -2.66024e-08 -9.11976e-08 -1.44734e-07 -1.96754e-08 -1.34275e-09 -9.98256e-09 -3.95848e-07
          -2.82624e-09 -4.34146e-07 -1.1157e-08 -4.6736e-09 -6.66107e-08 -1.09516e-07 -6.22388e-09 -3.58659e-09 -2.85716e-08 -7.28122e-08 -1.38481e-07 -2.72617e-08
          -1.15806e-09 -1.8238e-08 -3.53659e-07 -2.0407e-09 -4.05691e-07 -4.61562e-08 -9.10856e-09 -7.16017e-08 -8.14923e-08 -2.03868e-08 -6.44309e-09 -3.0649e-08
          -6.72208e-08 -1.42272e-07 -2.5163e-08 -3.12731e-09 -5.02376e-08 -2.72247e-07 -2.34878e-09 -3.81079e-07 -7.22351e-08 -2.09318e-08 -6.63753e-08 -4.12435e-08
          -3.35835e-08 -1.82979e-08 -3.32069e-08 -6.57218e-08 -1.50019e-07 -1.5571e-08 -7.16307e-09 -7.27675e-08 -2.1027e-07 -2.45857e-09 -4.17357e-07 -8.06486e-08
          -2.67729e-08 -4.88746e-08 -1.26269e-08 -3.58135e-08 -3.56075e-08 -3.35284e-08 -6.85975e-08 -1.34476e-07 -9.01365e-09 -8.9967e-09 -5.72897e-08 -2.2812e-07
          -2.02803e-09 -4.23828e-07 -9.70922e-08 -2.73859e-08 -2.91722e-08 -6.13471e-09 -3.62556e-08 -5.05131e-08 -3.05352e-08 -6.3673e-08 -1.09715e-07 -7.79449e-09
          -9.13184e-09 -4.62797e-08 -2.55974e-07 -2.36292e-09 -3.81081e-07 -1.04872e-07 -3.33438e-08 -1.28712e-08 -6.94012e-09 -4.16068e-08 -7.1645e-08 -2.5988e-08
          -6.26346e-08 -7.88898e-08 -8.21869e-09 -9.51701e-09 -6.25583e-08 -2.32334e-07 -3.90933e-09 -3.10295e-07 -1.08807e-07 -5.03444e-08 -4.28289e-09 -5.92025e-09
          -3.3953e-08 -1.05077e-07 -2.07953e-08 -7.04663e-08 -4.83486e-08 -4.99126e-09 -5.78231e-09 -9.09155e-08 -1.66476e-07 -5.52822e-09 -2.44816e-07 -1.21978e-07
          -8.00153e-08 -2.86583e-09 -3.88537e-09 -2.18621e-08 -1.36735e-07 -1.63232e-08 -6.52075e-08 -3.29575e-08 -2.53365e-09 -1.8982e-09 -1.09856e-07 -1.04005e-07
          -5.77864e-09 -1.81111e-07 -1.25638e-07 -1.30605e-07 -1.65455e-09 -3.18297e-09 -2.84904e-08 -1.56045e-07 -1.43587e-08 -5.47716e-08 -2.21503e-08 -1.92033e-09
          -7.92467e-10 -1.14364e-07 -5.79677e-08 -4.77546e-09 -1.34319e-07 -8.28171e-08 -2.32283e-07 -2.95293e-09 -4.53935e-09 -4.23293e-08 -1.65425e-07 -1.55189e-08
          -4.20093e-08 -1.48532e-08 -1.62745e-09 -1.88468e-10 -1.04705e-07 -2.97761e-08 -4.06182e-09 -1.06596e-07 -3.51637e-08 -3.25938e-07 -4.66297e-09 -8.37595e-09
          -5.14691e-08 -1.72864e-07 -1.78933e-08 -2.64312e-08 -7.56685e-09 -2.52091e-09 -9.63258e-10 -7.67302e-08 -2.00552e-08 -3.99177e-09 -1.02478e-07 -1.92934e-08
          -3.46406e-07 -4.25782e-09 -1.60876e-08 -5.63427e-08 -1.80469e-07 -2.22518e-08 -1.23288e-08 -3.01785e-09 -1.12952e-09 -6.32607e-10 -3.81606e-08 -1.49538e-08
          -3.30017e-09 -1.0965e-07 -1.56715e-08 -2.99404e-07 -5.91179e-09 -2.77362e-08 -7.3951e-08 -1.88072e-07 -2.91004e-08 -3.2629e-09 -6.7745e-10 2.54578e-10
          9.82954e-11 -9.0049e-09 -5.70683e-09 -1.21295e-09 -5.61769e-08 -7.3206e-09 -1.29634e-07 -3.90167e-09 -1.68275e-08 -4.41768e-08 -9.66736e-08 -1.63483e-08
        </DataArray>
        <DataArray type="Float32" Name="velocity[1]" NumberOfComponents="1" format="ascii">
          4.02313e-25 6.94325e-24 1.44184e-25 -7.32451e-25 5.52857e-26 0 9.22304e-26 -1.15798e-25 9.45227e-26 5.37215e-24 -3.54831e-24 6.93262e-26
          2.26932e-24 -8.75002e-25 3.91001e-25 1.4005e-24 6.94746e-24 1.35493e-25 -1.67781e-24 -2.2245e-25 7.3674e-24 1.00028e-24 2.17759e-25 -6.94479e-24
          -2.13087e-25 0 -6.71181e-26 7.12483e-26 4.51492e-28 2.54132e-25 -5.85631e-25 -1.06381e-23 -1.8605e-24 4.93626e-24 -2.43218e-25 0
          4.08335e-25 -2.48125e-25 -3.97477e-25 0 6.61692e-24 -1.02874e-23 0 1.05024e-24 -2.63074e-25 -6.05143e-25 1.38542e-23 -1.67789e-24
          -8.29578e-24 4.43778e-25 1.0556e-23 -2.04845e-23 2.52682e-23 -3.60376e-24 1.14903e-24 3.19428e-24 -4.22294e-24 2.92035e-24 -1.22317e-24 9.1636e-25
          -1.30986e-25 -7.14048e-23 6.59026e-24 1.21483e-23 -5.0411e-25 -6.37341e-24 1.66373e-25 -1.18318e-25 -3.76478e-26 -5.8933e-24 3.85115e-24 -6.99721e-24
          -4.28922e-28 1.19652e-25 -1.40302e-24 -1.72279e-25 7.56121e-24 -6.90497e-25 8.62697e-24 2.10784e-25 -1.38366e-23 0 -1.64183e-25 1.74834e-26
          4.01469e-25 -3.68888e-25 5.17777e-24 -1.36246e-24 8.05809e-25 1.40196e-24 -1.22138e-24 1.50499e-24 0 1.07207e-23 -1.10061e-24 -2.38708e-23
          -1.52372e-25 -1.68229e-25 -2.9219e-24 2.02578e-28 -6.78141e-28 -7.05714e-28 3.49366e-26 -3.18043e-28 -1.54704e-24 -2.26039e-25 1.36592e-23 1.55894e-24
          3.07887e-24 -9.31342e-26 2.3599e-23 -1.08493e-25 -5.24819e-26 -2.14497e-25 -6.76553e-26 -3.55485e-24 -1.15056e-23 -3.12116e-28 -3.47904e-25 1.80964e-24
          -1.60306e-24 -9.56568e-24 -1.27943e-25 -1.9809e-24 -3.48237e-25 4.22402e-24 0 0 -9.58395e-25 3.2536e-28 1.12115e-24 2.55722e-24
          -5.59465e-28 4.80119e-26 -4.72788e-28 -1.12456e-23 9.79401e-25 1.37554e-24 -7.30084e-26 -2.23847e-24 6.08196e-24 -1.13645e-23 8.93084e-24 9.99334e-25
          -4.31226e-26 -9.19245e-25 2.79461e-24 -7.945e-25 0 -1.98127e-24 4.48084e-24 1.73643e-25 7.09154e-25 -1.25206e-25 1.61416e-24 1.81919e-27
          -7.91859e-24 7.64219e-24 8.99453e-25 1.92449e-25 6.90992e-25 7.65556e-24 1.99205e-24 -2.6939e-25 1.34695e-25 -5.233e-24 8.12615e-25 -4.77849e-25
          -3.30518e-26 4.77795e-25 -2.5639e-23 2.37918e-26 -8.23771e-24 -4.3102e-24 -4.96728e-25 -1.15094e-24 3.85469e-24 -1.79794e-24 1.04925e-24 -1.89178e-25
          5.21161e-24 1.057e-23 0 -2.90752e-25 3.84413e-24 8.97872e-24 2.37584e-26 4.4177e-24 4.87052e-25 9.56436e-29 -4.66833e-24 -1.48515e-24
          3.78517e-25 -6.71276e-25 -4.72124e-28 -2.13877e-25 2.38295e-27 7.26871e-25 -6.69998e-25 -5.00447e-27 1.52954e-23 -4.87507e-27 1.22493e-24 4.61468e-24
          1.13168e-24 4.66851e-24 3.38814e-24 -4.94114e-24 7.95978e-29 -2.52552e-24 -4.99846e-24 -9.12731e-24 -1.64477e-27 7.2484e-25 -2.06101e-24 -4.38026e-28
          -5.98847e-26 -3.0418e-24 1.25651e-24 0 0 4.77218e-25 4.15424e-24 -5.14607e-25 4.74595e-24 0 1.20782e-24 0
          -7.45843e-25 3.52217e-25 -4.38556e-28 1.1193e-25 -6.42674e-24 9.85065e-28 7.03625e-28 4.01242e-28 4.57823e-24 2.71396e-29 -1.35539e-24 -2.21928e-24
          -1.31928e-27 3.58446e-24 1.55586e-27 1.07482e-26 2.1811e-24 -1.15087e-23 0 -1.19037e-23 0 -6.04588e-28 3.30031e-24 -4.0907e-24
          -1.91974e-24 1.82885e-28 1.41267e-24 0 4.33882e-24 0 7.33702e-25 2.39421e-24 5.4725e-24 1.21856e-25 -5.60195e-24 -5.31953e-24
          -2.36689e-24 1.96762e-25 6.36163e-26 1.11448e-28 -1.87935e-24 -1.12415e-24 4.68217e-24 -2.26003e-24 2.55623e-24 -2.17751e-24 7.17397e-25 1.01026e-23
          -8.29368e-26 -4.29836e-24 1.04191e-23 5.92419e-24 -3.56818e-24 7.74434e-26 9.89523e-25 -4.25977e-28 1.10737e-24 1.21423e-27 -4.22232e-24 9.16354e-25
          -1.97553e-24 -3.26882e-26 -3.11602e-24 -1.44559e-25 -5.9475e-24 -5.34462e-24 1.03069e-23 2.91651e-25 3.81612e-24 1.16126e-24 -3.94434e-25 -9.10273e-25
          -1.13122e-24 6.83856e-25 0 -4.1231e-26 -1.48518e-24 5.09201e-24 -8.94905e-24 8.95169e-24 -6.27228e-24 4.7158e-28 0 0
          2.59247e-25 -7.09705e-28 1.47638e-24 -1.28981e-24 -1.36026e-24 1.25261e-24 -2.10872e-24 -9.58217e-25 -1.43561e-24 2.60313e-26 6.94455e-25 -4.10777e-24
          1.45979e-23 -2.75943e-25 -6.95537e-24 4.97767e-25 1.01182e-24 7.09219e-30 -9.00649e-25 -1.27779e-27 -1.37535e-27 1.25616e-25 -3.13278e-24 5.51628e-25
          -1.35872e-25 1.11892e-23 -4.62615e-24 0 -2.93968e-25 -9.196e-25 7.08476e-24 -8.20698e-25 0 -5.08323e-25 -1.32946e-27 -4.15818e-25
          7.02999e-25 -1.39827e-24 -2.3573e-24 -3.79339e-25 -2.8635e-24 1.13771e-24 -3.15819e-23 0 3.15727e-23 -2.31434e-23 1.91105e-23 4.81113e-25
        </DataArray>
        <DataArray type="Float32" Name="velocity[2]" NumberOfComponents="1" format="ascii">
          -2.58169e-10 5.95635e-09 -3.75739e-09 -4.25422e-09 -3.1299e-09 -3.15366e-09 -2.85364e-09 -2.53104e-09 -2.5066e-09 -2.9111e-09 -2.98369e-09 -2.77248e-09
          -2.32148e-09 -1.88076e-09 -1.28494e-09 -1.8717e-09 2.24376e-08 -3.08829e-09 -6.02991e-09 -1.87561e-09 -1.76523e-09 -1.10477e-09 -1.77697e-09 -2.06506e-09
          -3.0367e-09 -3.17107e-09 -3.94623e-09 -2.64307e-09 -1.48308e-09 -1.72291e-09 -3.653e-09 3.17871e-08 -8.70533e-10 -2.47083e-09 -4.00545e-09 -3.13382e-09
          -1.40697e-09 -1.90865e-09 -3.0999e-09 -4.11241e-09 -3.69363e-09 -6.8404e-09 -3.1894e-09 -1.9745e-09 -2.32555e-09 -2.50581e-09 3.3859e-08 2.79625e-10
          1.08769e-08 -6.74567e-09 -7.42935e-09 -5.96635e-09 -4.05993e-09 -3.80522e-09 -4.77544e-09 -3.20428e-09 -9.5768e-09 -2.42107e-09 -2.2877e-09 -3.06153e-09
          -1.12151e-08 1.46327e-09 -1.11477e-09 -3.24016e-08 -1.45857e-08 -2.01694e-08 -1.84581e-08 -1.34209e-08 -4.23974e-09 -5.49583e-09 -4.64106e-09 -1.52287e-08
          -1.08115e-09 -1.5319e-09 -3.3769e-09 -3.27393e-08 -4.14956e-08 -2.80947e-09 -5.76066e-08 -1.93146e-08 -4.17752e-08 -2.3661e-08 -2.97307e-08 -2.78074e-09
          -3.13663e-09 -4.17856e-09 -2.07207e-08 -8.64138e-10 -1.25833e-09 -3.65722e-09 -3.40103e-08 -3.74166e-08 -2.1013e-09 -2.12939e-08 -1.42801e-08 -6.43355e-08
          -1.9075e-08 -4.66216e-08 -2.54418e-09 -2.36845e-09 -4.52166e-09 -2.49462e-08 -7.48593e-10 -1.0718e-09 -3.80119e-09 -3.07647e-08 -3.42808e-08 -2.16589e-09
          -4.98994e-09 -6.47348e-09 -7.65482e-08 -9.33633e-09 -4.47696e-08 -2.51532e-09 -2.09718e-09 -4.55949e-09 -2.80591e-08 -9.6528e-10 -1.4371e-09 -4.28378e-09
          -2.75408e-08 -3.0638e-08 -2.05372e-09 -2.09767e-09 -4.45743e-09 -8.42961e-08 -7.60711e-09 -4.67478e-08 -1.86703e-09 -1.55177e-09 -5.61756e-09 -2.6857e-08
          -9.13279e-10 -1.31764e-09 -4.66956e-09 -2.31984e-08 -2.95496e-08 -3.70346e-09 -1.54375e-09 -3.32024e-09 -7.96562e-08 -5.26329e-09 -6.44597e-08 -1.65694e-09
          -1.31736e-09 -9.12525e-09 -2.31724e-08 -1.12638e-09 -1.25586e-09 -5.06035e-09 -1.68843e-08 -2.72592e-08 -4.89012e-09 -1.2229e-09 -2.70647e-09 -7.15567e-08
          -3.14161e-09 -7.85668e-08 -2.97683e-09 -1.43683e-09 -1.20604e-08 -1.99716e-08 -2.12476e-09 -1.32137e-09 -5.32702e-09 -1.32013e-08 -2.52736e-08 -5.52843e-09
          -6.55911e-10 -3.2752e-09 -6.31386e-08 -2.23683e-09 -7.4823e-08 -1.10857e-08 -2.67228e-09 -1.34962e-08 -1.62593e-08 -5.85403e-09 -2.31286e-09 -5.8102e-09
          -1.18605e-08 -2.47854e-08 -4.26164e-09 -7.24865e-10 -7.61754e-09 -4.81378e-08 -3.23436e-09 -6.92549e-08 -1.42255e-08 -5.02208e-09 -1.30889e-08 -1.03838e-08
          -1.01978e-08 -5.72828e-09 -6.29915e-09 -1.16778e-08 -2.65573e-08 -3.16756e-09 -1.96256e-09 -1.35368e-08 -3.80932e-08 -1.65504e-09 -7.4593e-08 -1.43283e-08
          -4.24877e-09 -8.96652e-09 -3.67475e-09 -8.16558e-09 -6.86909e-09 -5.57027e-09 -1.18119e-08 -2.39931e-08 -2.89868e-09 -3.09151e-09 -1.23311e-08 -4.21311e-08
          -1.24323e-09 -7.56683e-08 -1.77973e-08 -5.07659e-09 -5.79457e-09 -2.27151e-09 -7.54001e-09 -8.80067e-09 -4.72679e-09 -1.18386e-08 -2.09562e-08 -3.29625e-09
          -3.43284e-09 -9.8401e-09 -4.64281e-08 -1.42075e-09 -6.92852e-08 -2.15107e-08 -8.62299e-09 -5.40517e-09 -4.805e-09 -1.05537e-08 -1.32244e-08 -3.72263e-09
          -1.05026e-08 -1.39802e-08 -2.71107e-09 -2.98403e-09 -1.15939e-08 -4.21552e-08 -3.22649e-09 -5.80156e-08 -2.32085e-08 -1.22632e-08 -3.61649e-09 -4.06484e-09
          -9.94133e-09 -2.00447e-08 -2.79424e-09 -1.24465e-08 -8.94229e-09 -1.91415e-09 -2.47922e-09 -1.69047e-08 -3.11616e-08 -4.47304e-09 -4.75918e-08 -2.61747e-08
          -1.74402e-08 -3.2673e-09 -3.49951e-09 -6.66429e-09 -2.48874e-08 -2.25882e-09 -1.18268e-08 -6.86742e-09 -1.873e-09 -1.74549e-09 -2.05483e-08 -2.04851e-08
          -4.39321e-09 -3.60624e-08 -2.75252e-08 -2.74938e-08 -3.37805e-09 -3.71421e-09 -7.78224e-09 -2.86464e-08 -2.49541e-09 -1.00223e-08 -4.78257e-09 -1.44285e-09
          -1.37073e-09 -2.14475e-08 -1.2444e-08 -4.01219e-09 -2.73777e-08 -2.08694e-08 -4.66353e-08 -3.42505e-09 -3.47465e-09 -9.52885e-09 -3.03756e-08 -3.15891e-09
          -7.89341e-09 -3.8111e-09 -1.64422e-09 -1.32202e-09 -2.02486e-08 -7.92733e-09 -3.78122e-09 -2.20975e-08 -1.05275e-08 -6.15042e-08 -3.76974e-09 -4.31613e-09
          -1.16848e-08 -3.20992e-08 -3.52377e-09 -5.21449e-09 -2.58661e-09 -1.82093e-09 -1.50124e-09 -1.58198e-08 -6.88209e-09 -4.11822e-09 -2.13608e-08 -6.72912e-09
          -6.48402e-08 -4.79734e-09 -6.55435e-09 -1.3095e-08 -3.43799e-08 -5.00784e-09 -2.56137e-09 -1.39048e-09 -1.28385e-09 -1.381e-09 -9.11551e-09 -6.2641e-09
          -4.39832e-09 -2.31028e-08 -6.52104e-09 -5.82196e-08 -7.95192e-09 -1.13247e-08 -1.81583e-08 -3.64412e-08 -6.3302e-09 -7.93412e-10 -5.89866e-10 -4.38552e-10
          -4.40472e-10 -2.52197e-09 -2.68786e-09 -2.19476e-09 -1.34173e-08 -6.73969e-09 -3.39315e-08 -1.45617e-08 -1.27499e-08 -1.45344e-08 -2.02698e-08 -3.3987e-09
        </DataArray>
        <DataArray type="Float32" Name="z[0]" NumberOfComponents="1" format="ascii">
          0.150578 0.150579 0.15058 0.150582 0.150582 0.150583 0.150584 0.150585 0.150585 0.150586 0.150587 0.150588
          0.150589 0.150591 0.150596 0.150581 0.150582 0.150583 0.150585 0.150586 0.150587 0.150587 0.150588 0.150588
          0.150589 0.15059 0.150591 0.150593 0.150595 0.150599 0.150584 0.150585 0.150587 0.150588 0.150589 0.15059
          0.15059 0.150591 0.150592 0.150593 0.150593 0.150595 0.150596 0.150598 0.150602 0.150588 0.150589 0.15059
          0.150591 0.150592 0.150593 0.150594 0.150594 0.150595 0.150596 0.150597 0.150598 0.150599 0.150601 0.150605
          0.150591 0.150592 0.150593 0.150594 0.150595 0.150596 0.150597 0.150597 0.150598 0.150599 0.1506 0.150601
          0.150602 0.150604 0.150609 0.150594 0.150595 0.150596 0.150597 0.150598 0.150599 0.1506 0.1506 0.150601