<?xml version="1.0"?>
<VTKFile type="UnstructuredGrid" version="0.1" byte_order="LittleEndian">
  <UnstructuredGrid>
    <Piece NumberOfCells="360" NumberOfPoints="800">
      <CellData Scalars="pressure[0]">
        <DataArray type="Float32" Name="pressure[0]" NumberOfComponents="1" format="ascii">
          2.1007e+07 2.10216e+07 2.15326e+07 2.20649e+07 2.24324e+07 2.2864e+07 2.30017e+07 2.30521e+07 2.31138e+07 2.31833e+07 2.33924e+07 2.3736e+07
          2.39909e+07 2.46462e+07 2.54042e+07 2.10511e+07 2.10656e+07 2.16305e+07 2.21846e+07 2.25926e+07 2.30378e+07 2.31394e+07 2.31794e+07 2.32435e+07
          2.33239e+07 2.36179e+07 2.39664e+07 2.41707e+07 2.48372e+07 2.55711e+07 2.10957e+07 2.11097e+07 2.16973e+07 2.23229e+07 2.26774e+07 2.30929e+07
          2.32165e+07 2.32769e+07 2.33632e+07 2.34783e+07 2.388e+07 2.42797e+07 2.44763e+07 2.50853e+07 2.57836e+07 2.11427e+07 2.11644e+07 2.15569e+07
          2.24547e+07 2.27855e+07 2.31737e+07 2.32855e+07 2.334e+07 2.34833e+07 2.3677e+07 2.42205e+07 2.46695e+07 2.48558e+07 2.53814e+07 2.60491e+07
          2.12545e+07 2.12789e+07 1.97895e+07 2.25522e+07 2.2956e+07 2.33489e+07 2.34187e+07 2.34554e+07 2.37081e+07 2.40965e+07 2.46283e+07 2.50406e+07
          2.52303e+07 2.57172e+07 2.63101e+07 2.14546e+07 2.14976e+07 2.20231e+07 2.303e+07 2.33246e+07 2.35806e+07 2.36332e+07 2.37096e+07 2.40581e+07
          2.45786e+07 2.51074e+07 2.53774e+07 2.55802e+07 2.60555e+07 2.66032e+07 2.17116e+07 2.17615e+07 2.26643e+07 2.35171e+07 2.37158e+07 2.41629e+07
          2.42409e+07 2.43213e+07 2.45402e+07 2.5103e+07 2.55637e+07 2.56754e+07 2.58672e+07 2.64217e+07 2.70125e+07 2.20828e+07 2.21367e+07 2.32042e+07
          2.40071e+07 2.42234e+07 2.47091e+07 2.47779e+07 2.48477e+07 2.50573e+07 2.55353e+07 2.5861e+07 2.59431e+07 2.61993e+07 2.67997e+07 2.75789e+07
          2.26267e+07 2.26898e+07 2.36747e+07 2.45091e+07 2.47852e+07 2.51911e+07 2.53286e+07 2.54688e+07 2.566e+07 2.59966e+07 2.61691e+07 2.62015e+07
          2.64633e+07 2.72268e+07 2.81444e+07 2.32869e+07 2.33938e+07 2.40393e+07 2.47579e+07 2.52826e+07 2.56152e+07 2.59133e+07 2.62019e+07 2.63127e+07
          2.64616e+07 2.65436e+07 2.65727e+07 2.68464e+07 2.76535e+07 2.84796e+07 2.42492e+07 2.43915e+07 2.46716e+07 2.52269e+07 2.56971e+07 2.593e+07
          2.63877e+07 2.68052e+07 2.68986e+07 2.69159e+07 2.69266e+07 2.69643e+07 2.71902e+07 2.79975e+07 2.87262e+07 2.49499e+07 2.50287e+07 2.51798e+07
          2.56264e+07 2.60439e+07 2.62417e+07 2.68601e+07 2.73755e+07 2.74031e+07 2.73649e+07 2.73259e+07 2.73454e+07 2.75576e+07 2.83338e+07 2.92808e+07
          2.54553e+07 2.54972e+07 2.55862e+07 2.58787e+07 2.66982e+07 2.68119e+07 2.74602e+07 2.80227e+07 2.81082e+07 2.78488e+07 2.78155e+07 2.81523e+07
          2.87992e+07 2.98183e+07 3.00443e+07 2.59178e+07 2.60038e+07 2.6129e+07 2.65304e+07 2.76361e+07 2.77435e+07 2.82716e+07 2.86844e+07 2.87525e+07
          2.88056e+07 2.88248e+07 2.93724e+07 3.01511e+07 3.07443e+07 3.04857e+07 2.68294e+07 2.68356e+07 2.70116e+07 2.76209e+07 2.85221e+07 2.86056e+07
          2.89573e+07 2.92138e+07 2.92662e+07 2.93472e+07 2.95062e+07 3.03498e+07 3.10086e+07 3.11908e+07 3.10149e+07 2.75871e+07 2.76156e+07 2.78125e+07
          2.8804e+07 2.90824e+07 2.9141e+07 2.9389e+07 2.95516e+07 2.96023e+07 2.96801e+07 2.99953e+07 3.07891e+07 3.13792e+07 3.17043e+07 3.15138e+07
          2.83423e+07 2.83847e+07 2.85029e+07 2.93606e+07 2.95202e+07 2.95593e+07 2.96829e+07 2.97927e+07 2.98416e+07 2.99066e+07 3.03288e+07 3.12698e+07
          3.19013e+07 3.22172e+07 3.19701e+07 2.89538e+07 2.90122e+07 2.93742e+07 2.96799e+07 2.98145e+07 2.98588e+07 2.9954e+07 3.00349e+07 3.00859e+07
          3.01449e+07 3.06642e+07 3.1657e+07 3.23011e+07 3.25584e+07 3.2425e+07 2.92745e+07 2.9341e+07 2.95645e+07 2.98971e+07 3.0069e+07 3.01168e+07
          3.01996e+07 3.02702e+07 3.03167e+07 3.03733e+07 3.09439e+07 3.20402e+07 3.26993e+07 3.28899e+07 3.30571e+07 2.95303e+07 2.95892e+07 2.97925e+07
          3.01226e+07 3.02909e+07 3.03393e+07 3.04192e+07 3.04857e+07 3.05327e+07 3.0596e+07 3.11607e+07 3.23682e+07 3.30921e+07 3.324e+07 3.36585e+07
          2.9744e+07 2.98112e+07 2.9973e+07 3.02782e+07 3.04877e+07 3.05414e+07 3.06275e+07 3.0698e+07 3.07621e+07 3.08432e+07 3.16426e+07 3.29332e+07
          3.3456e+07 3.36126e+07 3.41266e+07 2.99483e+07 3.00183e+07 3.01623e+07 3.04606e+07 3.06743e+07 3.07337e+07 3.08342e+07 3.09153e+07 3.09997e+07
          3.10939e+07 3.21732e+07 3.35131e+07 3.38333e+07 3.40256e+07 3.45827e+07 3.01338e+07 3.01975e+07 3.03718e+07 3.06866e+07 3.08609e+07 3.09298e+07
          3.10487e+07 3.11434e+07 3.12534e+07 3.13719e+07 3.26218e+07 3.39903e+07 3.42637e+07 3.448e+07 3.49086e+07 3.03026e+07 3.0363e+07 3.05156e+07
          3.08315e+07 3.10559e+07 3.11266e+07 3.1261e+07 3.13716e+07 3.15069e+07 3.1668e+07 3.3118e+07 3.44046e+07 3.47084e+07 3.49033e+07 3.51962e+07
        </DataArray>
        <DataArray type="Float32" Name="pressure[1]" NumberOfComponents="1" format="ascii">
          2.1007e+07 2.10216e+07 2.15326e+07 2.20649e+07 2.24324e+07 2.2864e+07 2.30017e+07 2.30521e+07 2.31138e+07 2.31833e+07 2.33924e+07 2.3736e+07
          2.39909e+07 2.46462e+07 2.54042e+07 2.10511e+07 2.10656e+07 2.16305e+07 2.21846e+07 2.25926e+07 2.30378e+07 2.31394e+07 2.31794e+07 2.32435e+07
          2.33239e+07 2.36179e+07 2.39664e+07 2.41707e+07 2.48372e+07 2.55711e+07 2.10957e+07 2.11097e+07 2.16973e+07 2.23229e+07 2.26774e+07 2.30929e+07
          2.32165e+07 2.32769e+07 2.33632e+07 2.34783e+07 2.388e+07 2.42797e+07 2.44763e+07 2.50853e+07 2.57836e+07 2.11427e+07 2.11644e+07 2.15569e+07
          2.24547e+07 2.27855e+07 2.31737e+07 2.32855e+07 2.334e+07 2.34833e+07 2.3677e+07 2.42205e+07 2.46695e+07 2.48558e+07 2.53814e+07 2.60491e+07
          2.12545e+07 2.12789e+07 1.97895e+07 2.25522e+07 2.2956e+07 2.33489e+07 2.34187e+07 2.34554e+07 2.37081e+07 2.40965e+07 2.46283e+07 2.50406e+07
          2.52303e+07 2.57172e+07 2.63101e+07 2.14546e+07 2.14976e+07 2.20231e+07 2.303e+07 2.33246e+07 2.35806e+07 2.36332e+07 2.37096e+07 2.40581e+07
          2.45786e+07 2.51074e+07 2.53774e+07 2.55802e+07 2.60555e+07 2.66032e+07 2.17116e+07 2.17615e+07 2.26643e+07 2.35171e+07 2.37158e+07 2.41629e+07
          2.42409e+07 2.43213e+07 2.45402e+07 2.5103e+07 2.55637e+07 2.56754e+07 2.58672e+07 2.64217e+07 2.70125e+07 2.20828e+07 2.21367e+07 2.32042e+07
          2.40071e+07 2.42234e+07 2.47091e+07 2.47779e+07 2.48477e+07 2.50573e+07 2.55353e+07 2.5861e+07 2.59431e+07 2.61993e+07 2.67997e+07 2.75789e+07
          2.26267e+07 2.26898e+07 2.36747e+07 2.45091e+07 2.47852e+07 2.51911e+07 2.53286e+07 2.54688e+07 2.566e+07 2.59966e+07 2.61691e+07 2.62015e+07
          2.64633e+07 2.72268e+07 2.81444e+07 2.32869e+07 2.33938e+07 2.40393e+07 2.47579e+07 2.52826e+07 2.56152e+07 2.59133e+07 2.62019e+07 2.63127e+07
          2.64616e+07 2.65436e+07 2.65727e+07 2.68464e+07 2.76535e+07 2.84796e+07 2.42492e+07 2.43915e+07 2.46716e+07 2.52269e+07 2.56971e+07 2.593e+07
          2.63877e+07 2.68052e+07 2.68986e+07 2.69159e+07 2.69266e+07 2.69643e+07 2.71902e+07 2.79975e+07 2.87262e+07 2.49499e+07 2.50287e+07 2.51798e+07
          2.56264e+07 2.60439e+07 2.62417e+07 2.68601e+07 2.73755e+07 2.74031e+07 2.73649e+07 2.73259e+07 2.73454e+07 2.75576e+07 2.83338e+07 2.92808e+07
          2.54553e+07 2.54972e+07 2.55862e+07 2.58787e+07 2.66982e+07 2.68119e+07 2.74602e+07 2.80227e+07 2.81082e+07 2.78488e+07 2.78155e+07 2.81523e+07
          2.87992e+07 2.98183e+07 3.00443e+07 2.59178e+07 2.60038e+07 2.6129e+07 2.65304e+07 2.76361e+07 2.77435e+07 2.82716e+07 2.86844e+07 2.87525e+07
          2.88056e+07 2.88248e+07 2.93724e+07 3.01511e+07 3.07443e+07 3.04857e+07 2.68294e+07 2.68356e+07 2.70116e+07 2.76209e+07 2.85221e+07 2.86056e+07
          2.89573e+07 2.92138e+07 2.92662e+07 2.93472e+07 2.95062e+07 3.03498e+07 3.10086e+07 3.11908e+07 3.10149e+07 2.75871e+07 2.76156e+07 2.78125e+07
          2.8804e+07 2.90824e+07 2.9141e+07 2.9389e+07 2.95516e+07 2.96023e+07 2.96801e+07 2.99953e+07 3.07891e+07 3.13792e+07 3.17043e+07 3.15138e+07
          2.83423e+07 2.83847e+07 2.85029e+07 2.93606e+07 2.95202e+07 2.95593e+07 2.96829e+07 2.97927e+07 2.98416e+07 2.99066e+07 3.03288e+07 3.12698e+07
          3.19013e+07 3.22172e+07 3.19701e+07 2.89538e+07 2.90122e+07 2.93742e+07 2.96799e+07 2.98145e+07 2.98588e+07 2.9954e+07 3.00349e+07 3.00859e+07
          3.01449e+07 3.06642e+07 3.1657e+07 3.23011e+07 3.25584e+07 3.2425e+07 2.92745e+07 2.9341e+07 2.95645e+07 2.98971e+07 3.0069e+07 3.01168e+07
          3.01996e+07 3.02702e+07 3.03167e+07 3.03733e+07 3.09439e+07 3.20402e+07 3.26993e+07 3.28899e+07 3.30571e+07 2.95303e+07 2.95892e+07 2.97925e+07
          3.01226e+07 3.02909e+07 3.03393e+07 3.04192e+07 3.04857e+07 3.05327e+07 3.0596e+07 3.11607e+07 3.23682e+07 3.30921e+07 3.324e+07 3.36585e+07
          2.9744e+07 2.98112e+07 2.9973e+07 3.02782e+07 3.04877e+07 3.05414e+07 3.06275e+07 3.0698e+07 3.07621e+07 3.08432e+07 3.16426e+07 3.29332e+07
          3.3456e+07 3.36126e+07 3.41266e+07 2.99483e+07 3.00183e+07 3.01623e+07 3.04606e+07 3.06743e+07 3.07337e+07 3.08342e+07 3.09153e+07 3.09997e+07
          3.10939e+07 3.21732e+07 3.35131e+07 3.38333e+07 3.40256e+07 3.45827e+07 3.01338e+07 3.01975e+07 3.03718e+07 3.06866e+07 3.08609e+07 3.09298e+07
          3.10487e+07 3.11434e+07 3.12534e+07 3.13719e+07 3.26218e+07 3.39903e+07 3.42637e+07 3.448e+07 3.49086e+07 3.03026e+07 3.0363e+07 3.05156e+07
          3.08315e+07 3.10559e+07 3.11266e+07 3.1261e+07 3.13716e+07 3.15069e+07 3.1668e+07 3.3118e+07 3.44046e+07 3.47084e+07 3.49033e+07 3.51962e+07
        </DataArray>
        <DataArray type="Float32" Name="pressure[2]" NumberOfComponents="1" format="ascii">
          2.1007e+07 2.10216e+07 2.15326e+07 2.20649e+07 2.24324e+07 2.2864e+07 2.30017e+07 2.30521e+07 2.31138e+07 2.31833e+07 2.33924e+07 2.3736e+07
          2.39909e+07 2.46462e+07 2.54042e+07 2.10511e+07 2.10656e+07 2.16305e+07 2.21846e+07 2.25926e+07 2.30378e+07 2.31394e+07 2.31794e+07 2.32435e+07
          2.33239e+07 2.36179e+07 2.39664e+07 2.41707e+07 2.48372e+07 2.55711e+07 2.10957e+07 2.11097e+07 2.16973e+07 2.23229e+07 2.26774e+07 2.30929e+07
          2.32165e+07 2.32769e+07 2.33632e+07 2.34783e+07 2.388e+07 2.42797e+07 2.44763e+07 2.50853e+07 2.57836e+07 2.11427e+07 2.11644e+07 2.15569e+07
          2.24547e+07 2.27855e+07 2.31737e+07 2.32855e+07 2.334e+07 2.34833e+07 2.3677e+07 2.42205e+07 2.46695e+07 2.48558e+07 2.53814e+07 2.60491e+07
          2.12545e+07 2.12789e+07 1.97895e+07 2.25522e+07 2.2956e+07 2.33489e+07 2.34187e+07 2.34554e+07 2.37081e+07 2.40965e+07 2.46283e+07 2.50406e+07
          2.52303e+07 2.57172e+07 2.63101e+07 2.14546e+07 2.14976e+07 2.20231e+07 2.303e+07 2.33246e+07 2.35806e+07 2.36332e+07 2.37096e+07 2.40581e+07
          2.45786e+07 2.51074e+07 2.53774e+07 2.55802e+07 2.60555e+07 2.66032e+07 2.17116e+07 2.17615e+07 2.26643e+07 2.35171e+07 2.37158e+07 2.41629e+07
          2.42409e+07 2.43213e+07 2.45402e+07 2.5103e+07 2.55637e+07 2.56754e+07 2.58672e+07 2.64217e+07 2.70125e+07 2.20828e+07 2.21367e+07 2.32042e+07
          2.40071e+07 2.42234e+07 2.47091e+07 2.47779e+07 2.48477e+07 2.50573e+07 2.55353e+07 2.5861e+07 2.59431e+07 2.61993e+07 2.67997e+07 2.75789e+07
          2.26267e+07 2.26898e+07 2.36747e+07 2.45091e+07 2.47852e+07 2.51911e+07 2.53286e+07 2.54688e+07 2.566e+07 2.59966e+07 2.61691e+07 2.62015e+07
          2.64633e+07 2.72268e+07 2.81444e+07 2.32869e+07 2.33938e+07 2.40393e+07 2.47579e+07 2.52826e+07 2.56152e+07 2.59133e+07 2.62019e+07 2.63127e+07
          2.64616e+07 2.65436e+07 2.65727e+07 2.68464e+07 2.76535e+07 2.84796e+07 2.42492e+07 2.43915e+07 2.46716e+07 2.52269e+07 2.56971e+07 2.593e+07
          2.63877e+07 2.68052e+07 2.68986e+07 2.69159e+07 2.69266e+07 2.69643e+07 2.71902e+07 2.79975e+07 2.87262e+07 2.49499e+07 2.50287e+07 2.51798e+07
          2.56264e+07 2.60439e+07 2.62417e+07 2.68601e+07 2.73755e+07 2.74031e+07 2.73649e+07 2.73259e+07 2.73454e+07 2.75576e+07 2.83338e+07 2.92808e+07
          2.54553e+07 2.54972e+07 2.55862e+07 2.58787e+07 2.66982e+07 2.68119e+07 2.74602e+07 2.80227e+07 2.81082e+07 2.78488e+07 2.78155e+07 2.81523e+07
          2.87992e+07 2.98183e+07 3.00443e+07 2.59178e+07 2.60038e+07 2.6129e+07 2.65304e+07 2.76361e+07 2.77435e+07 2.82716e+07 2.86844e+07 2.87525e+07
          2.88056e+07 2.88248e+07 2.93724e+07 3.01511e+07 3.07443e+07 3.04857e+07 2.68294e+07 2.68356e+07 2.70116e+07 2.76209e+07 2.85221e+07 2.86056e+07
          2.89573e+07 2.92138e+07 2.92662e+07 2.93472e+07 2.95062e+07 3.03498e+07 3.10086e+07 3.11908e+07 3.10149e+07 2.75871e+07 2.76156e+07 2.78125e+07
          2.8804e+07 2.90824e+07 2.9141e+07 2.9389e+07 2.95516e+07 2.96023e+07 2.96801e+07 2.99953e+07 3.07891e+07 3.13792e+07 3.17043e+07 3.15138e+07
          2.83423e+07 2.83847e+07 2.85029e+07 2.93606e+07 2.95202e+07 2.95593e+07 2.96829e+07 2.97927e+07 2.98416e+07 2.99066e+07 3.03288e+07 3.12698e+07
          3.19013e+07 3.22172e+07 3.19701e+07 2.89538e+07 2.90122e+07 2.93742e+07 2.96799e+07 2.98145e+07 2.98588e+07 2.9954e+07 3.00349e+07 3.00859e+07
          3.01449e+07 3.06642e+07 3.1657e+07 3.23011e+07 3.25584e+07 3.2425e+07 2.92745e+07 2.9341e+07 2.95645e+07 2.98971e+07 3.0069e+07 3.01168e+07
          3.01996e+07 3.02702e+07 3.03167e+07 3.03733e+07 3.09439e+07 3.20402e+07 3.26993e+07 3.28899e+07 3.30571e+07 2.95303e+07 2.95892e+07 2.97925e+07
          3.01226e+07 3.02909e+07 3.03393e+07 3.04192e+07 3.04857e+07 3.05327e+07 3.0596e+07 3.11607e+07 3.23682e+07 3.30921e+07 3.324e+07 3.36585e+07
          2.9744e+07 2.98112e+07 2.9973e+07 3.02782e+07 3.04877e+07 3.05414e+07 3.06275e+07 3.0698e+07 3.07621e+07 3.08432e+07 3.16426e+07 3.29332e+07
          3.3456e+07 3.36126e+07 3.41266e+07 2.99483e+07 3.00183e+07 3.01623e+07 3.04606e+07 3.06743e+07 3.07337e+07 3.08342e+07 3.09153e+07 3.09997e+07
          3.10939e+07 3.21732e+07 3.35131e+07 3.38333e+07 3.40256e+07 3.45827e+07 3.01338e+07 3.01975e+07 3.03718e+07 3.06866e+07 3.08609e+07 3.09298e+07
          3.10487e+07 3.11434e+07 3.12534e+07 3.13719e+07 3.26218e+07 3.39903e+07 3.42637e+07 3.448e+07 3.49086e+07 3.03026e+07 3.0363e+07 3.05156e+07
          3.08315e+07 3.10559e+07 3.11266e+07 3.1261e+07 3.13716e+07 3.15069e+07 3.1668e+07 3.3118e+07 3.44046e+07 3.47084e+07 3.49033e+07 3.51962e+07
        </DataArray>
        <DataArray type="Float32" Name="velocity[0]" NumberOfComponents="1" format="ascii">
          -6.53553e-10 3.01986e-08 2.81537e-10 1.52161e-09 -2.00717e-10 -1.12738e-09 5.19735e-10 1.84938e-09 3.08866e-09 5.81333e-11 -1.91153e-09 -2.72955e-09
          -1.81462e-09 -5.47076e-10 -2.7032e-09 -7.72701e-09 9.34304e-08 6.25012e-10 -1.98155e-09 2.86637e-10 2.5086e-09 1.09634e-08 7.56285e-09 7.34704e-09
          -1.29411e-09 -3.9586e-09 -1.15747e-08 -7.09547e-09 -1.78678e-09 -7.1834e-09 -4.45997e-08 1.75223e-07 1.25764e-09 2.31881e-08 1.03217e-09 7.3251e-09
          2.02617e-08 1.58971e-08 6.08397e-09 -4.61864e-09 -4.758e-09 -2.90719e-08 -1.01884e-08 -3.91645e-09 -1.07839e-08 -4.4178e-08 1.87916e-07 6.59485e-09
          9.74799e-08 -4.18908e-10 -5.23697e-10 1.14251e-08 1.56906e-08 -1.15792e-09 -1.22325e-08 -6.25803e-09 -5.08016e-08 -7.26133e-09 -5.718e-09 -1.47205e-08
          -8.98381e-08 -4.37635e-08 -2.28723e-10 -9.2709e-08 -1.197e-08 -3.40073e-08 -2.74476e-08 -8.98242e-09 -6.43888e-09 -1.35318e-08 -9.0026e-09 -8.76954e-08
          -3.7118e-09 -5.24699e-09 -1.81378e-08 -1.75679e-07 -2.17912e-07 -7.17668e-09 -2.27282e-07 -2.77803e-08 -1.08365e-07 -6.24087e-08 -8.17907e-08 -7.92425e-09
          -6.86738e-09 -1.41181e-08 -1.29023e-07 -2.21845e-09 -4.18183e-09 -2.04163e-08 -1.77715e-07 -1.90822e-07 -2.47899e-09 -8.37492e-08 -3.79679e-08 -1.76814e-07
          -5.72436e-08 -1.66998e-07 -8.62576e-09 -3.65784e-09 -1.76326e-08 -1.56638e-07 -1.92027e-09 -4.10131e-09 -2.19808e-08 -1.62961e-07 -1.76995e-07 -2.79544e-09
          -2.68657e-08 -4.09834e-08 -2.00668e-07 -3.28785e-08 -2.36785e-07 -7.47191e-09 -2.84751e-09 -1.95278e-08 -1.73741e-07 -1.58433e-09 -4.18643e-09 -2.37439e-08
          -1.47443e-07 -1.60538e-07 -3.23589e-09 -7.74607e-09 -3.62408e-08 -2.10292e-07 -1.21885e-08 -3.08052e-07 -5.94359e-09 -3.11449e-09 -3.21109e-08 -1.65985e-07
          -1.50245e-09 -3.73219e-09 -2.6079e-08 -1.1868e-07 -1.45044e-07 -1.04532e-08 -2.35059e-09 -3.04842e-08 -2.15322e-07 -4.1261e-09 -3.78989e-07 -5.59461e-09
          -3.63777e-09 -5.41413e-08 -1.37911e-07 -2.3166e-09 -3.0326e-09 -2.84261e-08 -8.5817e-08 -1.32634e-07 -1.99218e-08 -2.14128e-09 -2.75442e-08 -2.18584e-07
          -1.41525e-09 -4.34171e-07 -1.02384e-08 -5.16589e-09 -6.93882e-08 -1.06472e-07 -5.20582e-09 -3.16797e-09 -3.05915e-08 -6.61673e-08 -1.19969e-07 -2.39167e-08
          -9.01787e-10 -2.16768e-08 -2.34172e-07 -1.1861e-09 -4.76275e-07 -1.95661e-08 -9.28379e-09 -7.64338e-08 -5.91438e-08 -1.30907e-08 -6.80974e-09 -3.23593e-08
          -6.03716e-08 -1.02636e-07 -2.46343e-08 -2.65058e-09 -1.69119e-08 -2.30208e-07 -1.74081e-09 -5.10912e-07 -4.72757e-08 -1.19474e-08 -5.66213e-08 -1.90493e-08
          -2.77012e-08 -1.4357e-08 -3.31709e-08 -5.27573e-08 -9.81289e-08 -2.15603e-08 -7.15698e-09 -2.04594e-08 -2.11273e-07 -1.81331e-09 -5.01006e-07 -8.47622e-08
          -1.58682e-08 -2.52341e-08 -7.45824e-09 -3.43211e-08 -2.65358e-08 -3.18035e-08 -4.91853e-08 -8.95672e-08 -1.59758e-08 -7.28174e-09 -2.80503e-08 -2.12945e-07
          -1.30975e-09 -4.61192e-07 -1.02941e-07 -2.39186e-08 -1.51522e-08 -3.91414e-09 -3.15501e-08 -4.16791e-08 -2.83358e-08 -5.78523e-08 -6.46017e-08 -1.21417e-08
          -4.60366e-09 -3.53899e-08 -2.15613e-07 -1.66571e-09 -3.9352e-07 -1.08025e-07 -3.26188e-08 -8.98836e-09 -5.18231e-09 -3.57585e-08 -6.16558e-08 -2.37604e-08
          -6.16472e-08 -4.81067e-08 -8.4534e-09 -5.26115e-09 -5.00567e-08 -1.90078e-07 -3.19393e-09 -3.11718e-07 -1.09084e-07 -5.07687e-08 -3.66028e-09 -5.07256e-09
          -2.94949e-08 -9.18432e-08 -1.88311e-08 -6.1411e-08 -3.84013e-08 -2.98673e-09 -3.91331e-09 -7.45783e-08 -1.37526e-07 -4.85705e-09 -2.38227e-07 -1.18025e-07
          -7.74104e-08 -2.59374e-09 -3.42639e-09 -1.9209e-08 -1.20279e-07 -1.46854e-08 -5.56776e-08 -2.75466e-08 -1.53221e-09 -1.42633e-09 -9.21594e-08 -8.74729e-08
          -5.11316e-09 -1.70408e-07 -1.18182e-07 -1.21977e-07 -1.50604e-09 -2.8261e-09 -2.5188e-08 -1.37672e-07 -1.28578e-08 -4.6347e-08 -1.85958e-08 -1.50748e-09
          -6.48355e-10 -9.80878e-08 -4.97301e-08 -4.26827e-09 -1.24845e-07 -7.65156e-08 -2.11652e-07 -2.64517e-09 -4.03346e-09 -3.74536e-08 -1.46172e-07 -1.38471e-08
          -3.54771e-08 -1.25251e-08 -1.3568e-09 -1.68691e-10 -9.12025e-08 -2.60008e-08 -3.66113e-09 -9.82719e-08 -3.20309e-08 -2.93686e-07 -4.15625e-09 -7.43955e-09
          -4.55316e-08 -1.52913e-07 -1.59215e-08 -2.23312e-08 -6.3943e-09 -2.13287e-09 -8.25004e-10 -6.74174e-08 -1.76809e-08 -3.57944e-09 -9.27838e-08 -1.73799e-08
          -3.10413e-07 -3.78783e-09 -1.42709e-08 -4.98607e-08 -1.59755e-07 -1.97702e-08 -1.04295e-08 -2.55866e-09 -9.61429e-10 -5.45851e-10 -3.36539e-08 -1.31951e-08
          -2.93764e-09 -9.78849e-08 -1.40043e-08 -2.67376e-07 -5.25324e-09 -2.45944e-08 -6.55228e-08 -1.66587e-07 -2.58285e-08 -2.76392e-09 -5.76546e-10 2.11077e-10
          7.75541e-11 -7.93624e-09 -5.03463e-09 -1.07526e-09 -4.9876e-08 -6.52196e-09 -1.1558e-07 -3.46619e-09 -1.49211e-08 -3.91622e-08 -8.56541e-08 -1.45057e-08
        </DataArray>
        <DataArray type="Float32" Name="velocity[1]" NumberOfComponents="1" format="ascii">
          1.0157e-25 4.77712e-24 7.71001e-26 2.36476e-25 3.11938e-26 0 -8.0773e-26 -2.40377e-25 6.79481e-26 5.78279e-24 -3.77673e-24 5.00677e-26
          2.46064e-24 -9.9037e-25 4.19584e-25 9.9773e-25 5.06449e-24 7.14599e-26 -7.80908e-25 -2.0431e-25 7.17271e-24 1.28791e-24 4.1038e-25 -6.77176e-24
          -1.83668e-25 0 -4.7738e-26 5.54929e-26 2.77978e-28 2.76167e-25 4.73272e-24 -7.34193e-24 -1.43368e-24 4.69257e-24 -2.56452e-25 0
          4.22642e-27 -7.51816e-25 -3.78085e-25 0 7.17069e-24 -1.12132e-23 0 1.13595e-24 -2.84577e-25 -9.5785e-24 1.66101e-23 -1.41497e-24
          -9.05124e-24 3.30113e-25 8.97155e-24 -2.23261e-23 2.4329e-23 -4.42653e-24 1.2589e-24 3.62994e-24 -4.73171e-24 3.14784e-24 -1.31613e-24 9.85821e-25
          -9.32063e-26 -6.08007e-23 5.6302e-24 9.62765e-24 -3.90777e-25 -4.21303e-24 1.06817e-25 -1.03805e-25 -2.66939e-25 -7.05044e-24 4.44262e-24 -8.25239e-24
          -2.09175e-28 1.29474e-25 -1.51076e-24 -1.26816e-25 6.67119e-24 -5.44022e-25 7.18152e-24 1.66611e-25 -7.88355e-24 0 -1.42387e-25 -2.60109e-25
          3.22444e-25 -5.00053e-25 5.91764e-24 -1.42269e-24 8.4262e-25 1.50917e-24 -9.70064e-25 1.08941e-24 0 7.06704e-24 7.97471e-25 -1.01021e-23
          5.11045e-26 -4.8117e-26 -3.01523e-24 -5.07678e-28 -1.12191e-28 -4.82978e-28 3.11569e-26 -4.12898e-28 -1.66217e-24 -1.73933e-25 1.3072e-23 1.26393e-24
          4.04481e-24 -2.45866e-26 1.45604e-23 6.45907e-26 3.68433e-26 2.6254e-25 -2.0935e-26 -3.37029e-24 -1.29319e-23 -2.16819e-28 -3.57925e-25 1.93618e-24
          -1.42707e-24 -9.38088e-24 -1.41555e-26 -1.35531e-24 -5.75986e-25 3.48078e-24 0 0 -2.49645e-25 -1.07444e-28 7.44486e-25 3.73818e-24
          -4.30296e-28 5.95379e-26 -1.32976e-27 -1.08329e-23 1.434e-24 1.67667e-24 -1.68367e-25 -3.06583e-24 3.56794e-24 -6.59747e-24 5.76217e-24 3.18794e-25
          -6.07521e-26 -2.6401e-25 3.45599e-24 -8.09069e-25 0 -2.11681e-24 4.07976e-24 1.11504e-25 3.60521e-25 -2.3414e-25 2.35499e-24 -3.33868e-29
          -4.17486e-24 5.63777e-24 6.68635e-25 1.76566e-25 -2.0319e-25 7.98405e-24 1.73076e-24 -3.07969e-25 1.53985e-25 -4.55752e-24 2.32826e-24 -2.62204e-25
          1.14782e-25 -3.01496e-24 -1.91214e-23 3.24292e-26 3.73064e-24 -3.12403e-24 -4.63232e-25 1.44238e-24 2.97546e-24 -1.84598e-24 1.01807e-24 -1.20238e-25
          4.82402e-24 8.74162e-24 0 -3.29174e-25 9.07163e-26 2.47107e-24 5.39404e-26 1.65943e-24 -3.52599e-24 4.79792e-30 -2.63971e-24 -8.46301e-25
          1.43856e-24 -7.77054e-25 -1.63471e-27 -1.45077e-24 -4.25247e-28 9.67001e-25 -7.42934e-25 8.17919e-28 1.57811e-23 -4.20193e-26 -3.19259e-24 5.62308e-24
          -2.79836e-25 2.64004e-24 2.24856e-24 -4.4159e-24 4.62651e-28 -2.36191e-24 -3.37463e-24 -5.88055e-24 7.58294e-28 7.41726e-25 7.18652e-25 5.24244e-28
          -3.57451e-26 -7.52563e-24 2.01539e-24 0 0 3.12798e-25 3.66246e-24 -4.88678e-25 4.40486e-24 0 1.72033e-24 0
          -3.2552e-25 4.22801e-25 3.05822e-28 9.10654e-26 -7.52461e-24 1.25217e-28 8.40842e-29 -6.30794e-29 4.05693e-24 2.05596e-28 -1.18984e-24 -2.0396e-24
          -2.23041e-28 8.43617e-25 6.58598e-28 -1.67268e-25 1.85769e-24 -9.93172e-24 0 -1.03174e-23 0 5.53548e-29 2.97968e-24 -3.68451e-24
          -1.6485e-24 4.17041e-29 1.27448e-24 0 3.31658e-24 0 4.92453e-25 1.73918e-24 4.76342e-24 1.11495e-25 -6.23266e-24 -5.37106e-24
          -2.07941e-24 1.74343e-25 4.88486e-26 1.59073e-28 -1.69446e-24 -1.0078e-24 3.96853e-24 -1.97928e-24 2.1758e-24 -1.79545e-24 7.78982e-25 8.42692e-24
          -7.16858e-26 -4.30692e-24 9.91529e-24 5.28851e-24 -3.182e-24 6.89395e-26 8.79139e-25 -2.79128e-28 9.90449e-25 3.51741e-28 -3.58818e-24 7.77197e-25
          -1.64699e-24 2.84971e-25 -2.6072e-24 -1.18705e-25 -5.54854e-24 -5.01278e-24 9.09129e-24 2.59058e-25 3.40074e-24 1.02721e-24 -3.42109e-25 -8.19341e-25
          -9.55129e-25 5.75136e-25 0 -3.58321e-26 -1.21267e-24 4.24985e-24 -7.47197e-24 7.47308e-24 -5.46201e-24 1.09661e-27 0 0
          2.28296e-25 -5.65484e-28 1.31283e-24 -1.08789e-24 -1.14387e-24 1.05527e-24 -1.77343e-24 -8.82679e-25 -1.26771e-24 2.15245e-26 5.02633e-25 -3.5634e-24
          1.28743e-23 -2.45079e-25 -6.18204e-24 4.44171e-25 8.94426e-25 1.00825e-28 -7.61361e-25 -3.91999e-28 -4.74023e-28 1.07746e-25 -2.76385e-24 4.86295e-25
          -1.22327e-25 9.72286e-24 -4.0431e-24 0 -2.60958e-25 -8.15226e-25 6.29949e-24 -7.34578e-25 0 -4.30003e-25 -4.62123e-28 -3.50936e-25
          5.95362e-25 -1.23293e-24 -2.04923e-24 -3.35322e-25 -2.62828e-24 1.01359e-24 -2.80602e-23 0 2.80404e-23 -2.05363e-23 1.69454e-23 4.26087e-25
        </DataArray>
        <DataArray type="Float32" Name="velocity[2]" NumberOfComponents="1" format="ascii">
          -7.1418e-11 3.92973e-09 -2.80998e-09 -2.61007e-09 -2.90409e-09 -2.93929e-09 -2.56674e-09 -2.3726e-09 -2.3544e-09 -3.02869e-09 -3.20656e-09 -3.01743e-09
          -2.52422e-09 -2.02639e-09 -1.37886e-09 -9.33385e-10 1.57038e-08 -2.25577e-09 -2.39354e-09 -1.7095e-09 -1.51621e-09 -4.70682e-10 -1.41528e-09 -1.59228e-09
          -3.08e-09 -3.43342e-09 -4.35466e-09 -2.92457e-09 -1.61785e-09 -1.86019e-09 -5.82797e-09 3.25344e-08 -6.00631e-10 1.7768e-09 -3.55737e-09 -2.37982e-09
          -3.75303e-11 -8.83915e-10 -2.54948e-09 -4.15672e-09 -4.00421e-09 -7.51573e-09 -3.488e-09 -2.14872e-09 -2.51068e-09 -9.83914e-09 3.08275e-08 2.83823e-10
          1.37687e-08 -5.5249e-09 -5.01407e-09 -2.27092e-09 -1.14662e-09 -3.65968e-09 -5.03175e-09 -3.64094e-09 -1.07831e-08 -2.64383e-09 -2.48076e-09 -3.30095e-09
          -1.06992e-08 -1.43694e-09 -9.0458e-10 -2.34491e-08 -1.1707e-08 -1.37608e-08 -1.05387e-08 -5.89561e-09 -4.83037e-09 -6.15991e-09 -5.37098e-09 -1.75191e-08
          -1.18301e-09 -1.65886e-09 -3.63455e-09 -3.03033e-08 -3.8101e-08 -2.32184e-09 -4.63787e-08 -1.57249e-08 -2.7248e-08 -1.669e-08 -1.85422e-08 -4.00371e-09
          -3.81973e-09 -4.97798e-09 -2.41492e-08 -9.35276e-10 -1.35244e-09 -3.92653e-09 -3.17532e-08 -3.46928e-08 -1.6588e-09 -1.81042e-08 -1.19074e-08 -3.52011e-08
          -1.34622e-08 -3.22046e-08 -3.45271e-09 -2.66125e-09 -5.1439e-09 -2.88656e-08 -8.00175e-10 -1.1461e-09 -4.07475e-09 -2.91597e-08 -3.23893e-08 -1.95266e-09
          -6.79516e-09 -9.9992e-09 -3.80458e-08 -8.68965e-09 -4.40629e-08 -2.68718e-09 -1.91704e-09 -4.75236e-09 -3.15882e-08 -1.01042e-09 -1.515e-09 -4.58032e-09
          -2.64532e-08 -2.95509e-08 -2.14058e-09 -3.24828e-09 -8.79003e-09 -3.94185e-08 -4.39307e-09 -5.58041e-08 -1.67941e-09 -1.21678e-09 -5.62717e-09 -2.92541e-08
          -9.46833e-10 -1.37405e-09 -4.98799e-09 -2.22333e-08 -2.84509e-08 -4.34686e-09 -2.27259e-09 -7.35059e-09 -4.00919e-08 -2.9309e-09 -6.81037e-08 -1.25307e-09
          -8.72275e-10 -9.06308e-09 -2.40981e-08 -1.12676e-09 -1.2798e-09 -5.41045e-09 -1.5907e-08 -2.51597e-08 -5.30299e-09 -2.00664e-09 -6.55754e-09 -4.01007e-08
          -1.64695e-09 -7.74843e-08 -1.9889e-09 -7.90755e-10 -1.1803e-08 -1.89985e-08 -1.89662e-09 -1.29389e-09 -5.72458e-09 -1.21696e-08 -2.25334e-08 -5.82493e-09
          -1.63941e-09 -5.60644e-09 -4.28054e-08 -1.16053e-09 -8.4289e-08 -2.81459e-09 -5.81029e-10 -1.21229e-08 -1.08105e-08 -4.2485e-09 -2.25012e-09 -5.96392e-09
          -1.05304e-08 -1.83596e-08 -5.17952e-09 -1.27972e-09 -3.65764e-09 -4.19785e-08 -2.42318e-09 -9.1913e-08 -8.5125e-09 -9.34314e-10 -1.02587e-08 -5.55751e-09
          -6.95623e-09 -3.26195e-09 -5.85041e-09 -9.92352e-09 -1.82784e-08 -4.69658e-09 -2.22189e-09 -4.2898e-09 -3.79146e-08 -1.13649e-09 -8.96993e-08 -1.59754e-08
          -2.77199e-09 -4.80742e-09 -2.43336e-09 -7.55117e-09 -5.05009e-09 -5.14127e-09 -8.289e-09 -1.57206e-08 -3.73994e-09 -2.62191e-09 -6.15168e-09 -3.82874e-08
          -7.54449e-10 -8.23665e-08 -1.95053e-08 -5.21579e-09 -3.60259e-09 -1.71276e-09 -6.60199e-09 -7.17853e-09 -4.30214e-09 -1.00078e-08 -1.15581e-08 -2.89338e-09
          -1.61732e-09 -6.9223e-09 -3.86531e-08 -1.00762e-09 -7.13801e-08 -2.22266e-08 -8.63239e-09 -4.57546e-09 -4.12698e-09 -9.14417e-09 -1.13104e-08 -3.35451e-09
          -1.08112e-08 -8.63565e-09 -2.20316e-09 -1.87517e-09 -9.08343e-09 -3.42321e-08 -2.34852e-09 -5.76167e-08 -2.28145e-08 -1.20437e-08 -3.24155e-09 -3.61183e-09
          -8.71495e-09 -1.7494e-08 -2.50893e-09 -1.09041e-08 -7.13607e-09 -1.29156e-09 -1.76227e-09 -1.3669e-08 -2.54513e-08 -3.40428e-09 -4.55899e-08 -2.48973e-08
          -1.66259e-08 -2.9335e-09 -3.12526e-09 -5.89625e-09 -2.18796e-08 -2.01616e-09 -1.01232e-08 -5.79982e-09 -1.48371e-09 -1.40892e-09 -1.71444e-08 -1.70298e-08
          -3.49837e-09 -3.33968e-08 -2.54918e-08 -2.54785e-08 -3.02118e-09 -3.3138e-09 -6.90648e-09 -2.52819e-08 -2.2291e-09 -8.48607e-09 -4.02726e-09 -1.19485e-09
          -1.14147e-09 -1.83103e-08 -1.05171e-08 -3.29367e-09 -2.50416e-08 -1.89306e-08 -4.2355e-08 -3.05482e-09 -3.09499e-09 -8.4484e-09 -2.68431e-08 -2.80816e-09
          -6.66567e-09 -3.21353e-09 -1.38076e-09 -1.11113e-09 -1.75682e-08 -6.81213e-09 -3.204e-09 -2.01258e-08 -9.41216e-09 -5.53429e-08 -3.35671e-09 -3.83999e-09
          -1.03536e-08 -2.84013e-08 -3.13167e-09 -4.40457e-09 -2.18285e-09 -1.53494e-09 -1.26531e-09 -1.38394e-08 -5.98529e-09 -3.55857e-09 -1.91982e-08 -5.96086e-09
          -5.80497e-08 -4.26713e-09 -5.82434e-09 -1.16046e-08 -3.04394e-08 -4.44452e-09 -2.16603e-09 -1.17549e-09 -1.08443e-09 -1.16656e-09 -7.98833e-09 -5.47527e-09
          -3.83364e-09 -2.05473e-08 -5.7643e-09 -5.1948e-08 -7.06809e-09 -1.00568e-08 -1.61052e-08 -3.22847e-08 -5.61549e-09 -6.71828e-10 -4.99555e-10 -3.71634e-10
          -3.73492e-10 -2.20634e-09 -2.35323e-09 -1.91895e-09 -1.1883e-08 -5.95969e-09 -3.02032e-08 -1.29385e-08 -1.1324e-08 -1.28988e-08 -1.7966e-08 -3.01479e-09
        </DataArray>
        <DataArray type="Float32" Name="z[0]" NumberOfComponents="1" format="ascii">
          0.150578 0.150579 0.15058 0.150582 0.150582 0.150583 0.150584 0.150585 0.150585 0.150586 0.150587 0.150588
          0.150589 0.150591 0.150596 0.150581 0.150582 0.150583 0.150585 0.150586 0.150587 0.150587 0.150588 0.150588
          0.150589 0.15059 0.150591 0.150593 0.150595 0.150599 0.150584 0.150585 0.150587 0.150588 0.150589 0.15059
          0.15059 0.150591 0.150592 0.150593 0.150593 0.150595 0.150596 0.150598 0.150602 0.150588 0.150589 0.15059
          0.150591 0.150592 0.150593 0.150594 0.150594 0.150595 0.150596 0.150597 0.150598 0.150599 0.150601 0.150605
          0.150591 0.150592 0.150593 0.150594 0.150595 0.150596 0.150597 0.165046 0.150598 0.150599 0.1506 0.150601
          0.150602 0.150604 0.150609 0.150594 0.150595 0.150596 0.150597 0.150598 0.172883 0.219161 0.388966 0.150601
          0.150602 0.150603 0.150604 0.150605 0.150607 0.150612 0.150597 0.150598 0.150599 0.150601 0.167767 0.399494