<?xml version="1.0"?>
<VTKFile type="UnstructuredGrid" version="0.1" byte_order="LittleEndian">
  <UnstructuredGrid>
    <Piece NumberOfCells="360" NumberOfPoints="800">
      <CellData Scalars="pressure[0]">
        <DataArray type="Float32" Name="pressure[0]" NumberOfComponents="1" format="ascii">
          2.1006e+07 2.10205e+07 2.15701e+07 2.21446e+07 2.25133e+07 2.2945e+07 2.30813e+07 2.31316e+07 2.31925e+07 2.32609e+07 2.34617e+07 2.37932e+07
          2.40394e+07 2.46877e+07 2.54525e+07 2.10501e+07 2.10645e+07 2.16723e+07 2.22748e+07 2.26825e+07 2.31219e+07 2.32219e+07 2.32615e+07 2.33245e+07
          2.34029e+07 2.36838e+07 2.40195e+07 2.42178e+07 2.48822e+07 2.56197e+07 2.10949e+07 2.11086e+07 2.17411e+07 2.2417e+07 2.27757e+07 2.31864e+07
          2.3307e+07 2.33662e+07 2.34495e+07 2.35605e+07 2.39419e+07 2.43249e+07 2.45184e+07 2.51302e+07 2.58329e+07 2.11497e+07 2.11881e+07 2.16062e+07
          2.25503e+07 2.28936e+07 2.32834e+07 2.33927e+07 2.34466e+07 2.35807e+07 2.37612e+07 2.42735e+07 2.47065e+07 2.48952e+07 2.5426e+07 2.60999e+07
          2.12778e+07 2.13019e+07 1.97937e+07 2.26498e+07 2.30699e+07 2.34771e+07 2.35475e+07 2.35844e+07 2.3811e+07 2.41624e+07 2.46692e+07 2.50707e+07
          2.52652e+07 2.57618e+07 2.63624e+07 2.14776e+07 2.15206e+07 2.20833e+07 2.31463e+07 2.34566e+07 2.37241e+07 2.37675e+07 2.38002e+07 2.41152e+07
          2.46154e+07 2.51341e+07 2.54008e+07 2.56101e+07 2.60996e+07 2.66575e+07 2.1734e+07 2.17841e+07 2.27387e+07 2.36371e+07 2.38453e+07 2.40187e+07
          2.40633e+07 2.41565e+07 2.44328e+07 2.50662e+07 2.55756e+07 2.56935e+07 2.58923e+07 2.64664e+07 2.70709e+07 2.21029e+07 2.21569e+07 2.32337e+07
          2.40343e+07 2.42234e+07 2.44504e+07 2.45399e+07 2.46278e+07 2.48954e+07 2.54791e+07 2.58705e+07 2.59599e+07 2.62254e+07 2.68469e+07 2.76446e+07
          2.26421e+07 2.27045e+07 2.36473e+07 2.44331e+07 2.46737e+07 2.49758e+07 2.51216e+07 2.52752e+07 2.55262e+07 2.59646e+07 2.61833e+07 2.62198e+07
          2.64903e+07 2.72804e+07 2.82183e+07 2.32982e+07 2.3402e+07 2.40061e+07 2.46737e+07 2.5137e+07 2.54251e+07 2.57367e+07 2.60503e+07 2.62112e+07
          2.64466e+07 2.65664e+07 2.65978e+07 2.68814e+07 2.77179e+07 2.85575e+07 2.42328e+07 2.4374e+07 2.46414e+07 2.5144e+07 2.55545e+07 2.57504e+07
          2.62254e+07 2.66848e+07 2.68145e+07 2.69046e+07 2.69597e+07 2.70019e+07 2.72357e+07 2.8077e+07 2.88063e+07 2.49421e+07 2.50221e+07 2.51671e+07
          2.55723e+07 2.59286e+07 2.60663e+07 2.67031e+07 2.72869e+07 2.73287e+07 2.73556e+07 2.73675e+07 2.74082e+07 2.76098e+07 2.84355e+07 2.90928e+07
          2.54507e+07 2.55078e+07 2.55895e+07 2.59691e+07 2.63716e+07 2.6614e+07 2.73126e+07 2.79302e+07 2.80189e+07 2.78436e+07 2.78417e+07 2.79082e+07
          2.86285e+07 2.97116e+07 2.99029e+07 2.58399e+07 2.58987e+07 2.60613e+07 2.64776e+07 2.74586e+07 2.7578e+07 2.81388e+07 2.85765e+07 2.8637e+07
          2.86345e+07 2.85053e+07 2.91325e+07 3.00204e+07 3.06555e+07 3.03587e+07 2.67232e+07 2.67301e+07 2.69253e+07 2.74038e+07 2.83866e+07 2.84746e+07
          2.88402e+07 2.91111e+07 2.91621e+07 2.92353e+07 2.93655e+07 3.02362e+07 3.09252e+07 3.111e+07 3.09066e+07 2.74831e+07 2.75103e+07 2.77146e+07
          2.86809e+07 2.89697e+07 2.90293e+07 2.92861e+07 2.9455e+07 2.95058e+07 2.95838e+07 2.98958e+07 3.07034e+07 3.13052e+07 3.1636e+07 3.14213e+07
          2.82455e+07 2.8285e+07 2.8398e+07 2.92603e+07 2.94216e+07 2.946e+07 2.9586e+07 2.96981e+07 2.97472e+07 2.98125e+07 3.02402e+07 3.11974e+07
          3.18404e+07 3.21618e+07 3.18906e+07 2.88642e+07 2.8922e+07 2.92799e+07 2.95849e+07 2.97197e+07 2.97638e+07 2.98604e+07 2.99425e+07 2.99938e+07
          3.0053e+07 3.05814e+07 3.15928e+07 3.22488e+07 3.25094e+07 3.23578e+07 2.91846e+07 2.92509e+07 2.94734e+07 2.98051e+07 2.9977e+07 3.00247e+07
          3.01084e+07 3.01798e+07 3.02265e+07 3.02833e+07 3.08649e+07 3.19829e+07 3.26547e+07 3.28468e+07 3.30081e+07 2.94405e+07 2.94993e+07 2.97023e+07
          3.00322e+07 3.02006e+07 3.0249e+07 3.03297e+07 3.03969e+07 3.0444e+07 3.05077e+07 3.10837e+07 3.23163e+07 3.30547e+07 3.32032e+07 3.36257e+07
          2.96542e+07 2.97215e+07 2.98833e+07 3.01887e+07 3.03985e+07 3.04523e+07 3.05394e+07 3.06107e+07 3.06753e+07 3.07572e+07 3.15736e+07 3.28922e+07
          3.34251e+07 3.35828e+07 3.41045e+07 2.98586e+07 2.99287e+07 3.00728e+07 3.03717e+07 3.05859e+07 3.06456e+07 3.07474e+07 3.08296e+07 3.09149e+07
          3.10102e+07 3.21137e+07 3.34836e+07 3.38096e+07 3.40038e+07 3.45705e+07 3.00442e+07 3.01079e+07 3.02826e+07 3.05984e+07 3.07732e+07 3.08426e+07
          3.09634e+07 3.10595e+07 3.11711e+07 3.12913e+07 3.257e+07 3.39701e+07 3.42485e+07 3.44674e+07 3.49017e+07 3.0213e+07 3.02735e+07 3.04264e+07
          3.07436e+07 3.09691e+07 3.10404e+07 3.11769e+07 3.12894e+07 3.1427e+07 3.15908e+07 3.30751e+07 3.43917e+07 3.47015e+07 3.48986e+07 3.51933e+07
        </DataArray>
        <DataArray type="Float32" Name="pressure[1]" NumberOfComponents="1" format="ascii">
          2.1006e+07 2.10205e+07 2.15701e+07 2.21446e+07 2.25133e+07 2.2945e+07 2.30813e+07 2.31316e+07 2.31925e+07 2.32609e+07 2.34617e+07 2.37932e+07
          2.40394e+07 2.46877e+07 2.54525e+07 2.10501e+07 2.10645e+07 2.16723e+07 2.22748e+07 2.26825e+07 2.31219e+07 2.32219e+07 2.32615e+07 2.33245e+07
          2.34029e+07 2.36838e+07 2.40195e+07 2.42178e+07 2.48822e+07 2.56197e+07 2.10949e+07 2.11086e+07 2.17411e+07 2.2417e+07 2.27757e+07 2.31864e+07
          2.3307e+07 2.33662e+07 2.34495e+07 2.35605e+07 2.39419e+07 2.43249e+07 2.45184e+07 2.51302e+07 2.58329e+07 2.11497e+07 2.11881e+07 2.16062e+07
          2.25503e+07 2.28936e+07 2.32834e+07 2.33927e+07 2.34466e+07 2.35807e+07 2.37612e+07 2.42735e+07 2.47065e+07 2.48952e+07 2.5426e+07 2.60999e+07
          2.12778e+07 2.13019e+07 1.97937e+07 2.26498e+07 2.30699e+07 2.34771e+07 2.35475e+07 2.35844e+07 2.3811e+07 2.41624e+07 2.46692e+07 2.50707e+07
          2.52652e+07 2.57618e+07 2.63624e+07 2.14776e+07 2.15206e+07 2.20833e+07 2.31463e+07 2.34566e+07 2.37241e+07 2.37675e+07 2.38002e+07 2.41152e+07
          2.46154e+07 2.51341e+07 2.54008e+07 2.56101e+07 2.60996e+07 2.66575e+07 2.1734e+07 2.17841e+07 2.27387e+07 2.36371e+07 2.38453e+07 2.40187e+07
          2.40633e+07 2.41565e+07 2.44328e+07 2.50662e+07 2.55756e+07 2.56935e+07 2.58923e+07 2.64664e+07 2.70709e+07 2.21029e+07 2.21569e+07 2.32337e+07
          2.40343e+07 2.42234e+07 2.44504e+07 2.45399e+07 2.46278e+07 2.48954e+07 2.54791e+07 2.58705e+07 2.59599e+07 2.62254e+07 2.68469e+07 2.76446e+07
          2.26421e+07 2.27045e+07 2.36473e+07 2.44331e+07 2.46737e+07 2.49758e+07 2.51216e+07 2.52752e+07 2.55262e+07 2.59646e+07 2.61833e+07 2.62198e+07
          2.64903e+07 2.72804e+07 2.82183e+07 2.32982e+07 2.3402e+07 2.40061e+07 2.46737e+07 2.5137e+07 2.54251e+07 2.57367e+07 2.60503e+07 2.62112e+07
          2.64466e+07 2.65664e+07 2.65978e+07 2.68814e+07 2.77179e+07 2.85575e+07 2.42328e+07 2.4374e+07 2.46414e+07 2.5144e+07 2.55545e+07 2.57504e+07
          2.62254e+07 2.66848e+07 2.68145e+07 2.69046e+07 2.69597e+07 2.70019e+07 2.72357e+07 2.8077e+07 2.88063e+07 2.49421e+07 2.50221e+07 2.51671e+07
          2.55723e+07 2.59286e+07 2.60663e+07 2.67031e+07 2.72869e+07 2.73287e+07 2.73556e+07 2.73675e+07 2.74082e+07 2.76098e+07 2.84355e+07 2.90928e+07
          2.54507e+07 2.55078e+07 2.55895e+07 2.59691e+07 2.63716e+07 2.6614e+07 2.73126e+07 2.79302e+07 2.80189e+07 2.78436e+07 2.78417e+07 2.79082e+07
          2.86285e+07 2.97116e+07 2.99029e+07 2.58399e+07 2.58987e+07 2.60613e+07 2.64776e+07 2.74586e+07 2.7578e+07 2.81388e+07 2.85765e+07 2.8637e+07
          2.86345e+07 2.85053e+07 2.91325e+07 3.00204e+07 3.06555e+07 3.03587e+07 2.67232e+07 2.67301e+07 2.69253e+07 2.74038e+07 2.83866e+07 2.84746e+07
          2.88402e+07 2.91111e+07 2.91621e+07 2.92353e+07 2.93655e+07 3.02362e+07 3.09252e+07 3.111e+07 3.09066e+07 2.74831e+07 2.75103e+07 2.77146e+07
          2.86809e+07 2.89697e+07 2.90293e+07 2.92861e+07 2.9455e+07 2.95058e+07 2.95838e+07 2.98958e+07 3.07034e+07 3.13052e+07 3.1636e+07 3.14213e+07
          2.82455e+07 2.8285e+07 2.8398e+07 2.92603e+07 2.94216e+07 2.946e+07 2.9586e+07 2.96981e+07 2.97472e+07 2.98125e+07 3.02402e+07 3.11974e+07
          3.18404e+07 3.21618e+07 3.18906e+07 2.88642e+07 2.8922e+07 2.92799e+07 2.95849e+07 2.97197e+07 2.97638e+07 2.98604e+07 2.99425e+07 2.99938e+07
          3.0053e+07 3.05814e+07 3.15928e+07 3.22488e+07 3.25094e+07 3.23578e+07 2.91846e+07 2.92509e+07 2.94734e+07 2.98051e+07 2.9977e+07 3.00247e+07
          3.01084e+07 3.01798e+07 3.02265e+07 3.02833e+07 3.08649e+07 3.19829e+07 3.26547e+07 3.28468e+07 3.30081e+07 2.94405e+07 2.94993e+07 2.97023e+07
          3.00322e+07 3.02006e+07 3.0249e+07 3.03297e+07 3.03969e+07 3.0444e+07 3.05077e+07 3.10837e+07 3.23163e+07 3.30547e+07 3.32032e+07 3.36257e+07
          2.96542e+07 2.97215e+07 2.98833e+07 3.01887e+07 3.03985e+07 3.04523e+07 3.05394e+07 3.06107e+07 3.06753e+07 3.07572e+07 3.15736e+07 3.28922e+07
          3.34251e+07 3.35828e+07 3.41045e+07 2.98586e+07 2.99287e+07 3.00728e+07 3.03717e+07 3.05859e+07 3.06456e+07 3.07474e+07 3.08296e+07 3.09149e+07
          3.10102e+07 3.21137e+07 3.34836e+07 3.38096e+07 3.40038e+07 3.45705e+07 3.00442e+07 3.01079e+07 3.02826e+07 3.05984e+07 3.07732e+07 3.08426e+07
          3.09634e+07 3.10595e+07 3.11711e+07 3.12913e+07 3.257e+07 3.39701e+07 3.42485e+07 3.44674e+07 3.49017e+07 3.0213e+07 3.02735e+07 3.04264e+07
          3.07436e+07 3.09691e+07 3.10404e+07 3.11769e+07 3.12894e+07 3.1427e+07 3.15908e+07 3.30751e+07 3.43917e+07 3.47015e+07 3.48986e+07 3.51933e+07
        </DataArray>
        <DataArray type="Float32" Name="pressure[2]" NumberOfComponents="1" format="ascii">
          2.1006e+07 2.10205e+07 2.15701e+07 2.21446e+07 2.25133e+07 2.2945e+07 2.30813e+07 2.31316e+07 2.31925e+07 2.32609e+07 2.34617e+07 2.37932e+07
          2.40394e+07 2.46877e+07 2.54525e+07 2.10501e+07 2.10645e+07 2.16723e+07 2.22748e+07 2.26825e+07 2.31219e+07 2.32219e+07 2.32615e+07 2.33245e+07
          2.34029e+07 2.36838e+07 2.40195e+07 2.42178e+07 2.48822e+07 2.56197e+07 2.10949e+07 2.11086e+07 2.17411e+07 2.2417e+07 2.27757e+07 2.31864e+07
          2.3307e+07 2.33662e+07 2.34495e+07 2.35605e+07 2.39419e+07 2.43249e+07 2.45184e+07 2.51302e+07 2.58329e+07 2.11497e+07 2.11881e+07 2.16062e+07
          2.25503e+07 2.28936e+07 2.32834e+07 2.33927e+07 2.34466e+07 2.35807e+07 2.37612e+07 2.42735e+07 2.47065e+07 2.48952e+07 2.5426e+07 2.60999e+07
          2.12778e+07 2.13019e+07 1.97937e+07 2.26498e+07 2.30699e+07 2.34771e+07 2.35475e+07 2.35844e+07 2.3811e+07 2.41624e+07 2.46692e+07 2.50707e+07
          2.52652e+07 2.57618e+07 2.63624e+07 2.14776e+07 2.15206e+07 2.20833e+07 2.31463e+07 2.34566e+07 2.37241e+07 2.37675e+07 2.38002e+07 2.41152e+07
          2.46154e+07 2.51341e+07 2.54008e+07 2.56101e+07 2.60996e+07 2.66575e+07 2.1734e+07 2.17841e+07 2.27387e+07 2.36371e+07 2.38453e+07 2.40187e+07
          2.40633e+07 2.41565e+07 2.44328e+07 2.50662e+07 2.55756e+07 2.56935e+07 2.58923e+07 2.64664e+07 2.70709e+07 2.21029e+07 2.21569e+07 2.32337e+07
          2.40343e+07 2.42234e+07 2.44504e+07 2.45399e+07 2.46278e+07 2.48954e+07 2.54791e+07 2.58705e+07 2.59599e+07 2.62254e+07 2.68469e+07 2.76446e+07
          2.26421e+07 2.27045e+07 2.36473e+07 2.44331e+07 2.46737e+07 2.49758e+07 2.51216e+07 2.52752e+07 2.55262e+07 2.59646e+07 2.61833e+07 2.62198e+07
          2.64903e+07 2.72804e+07 2.82183e+07 2.32982e+07 2.3402e+07 2.40061e+07 2.46737e+07 2.5137e+07 2.54251e+07 2.57367e+07 2.60503e+07 2.62112e+07
          2.64466e+07 2.65664e+07 2.65978e+07 2.68814e+07 2.77179e+07 2.85575e+07 2.42328e+07 2.4374e+07 2.46414e+07 2.5144e+07 2.55545e+07 2.57504e+07
          2.62254e+07 2.66848e+07 2.68145e+07 2.69046e+07 2.69597e+07 2.70019e+07 2.72357e+07 2.8077e+07 2.88063e+07 2.49421e+07 2.50221e+07 2.51671e+07
          2.55723e+07 2.59286e+07 2.60663e+07 2.67031e+07 2.72869e+07 2.73287e+07 2.73556e+07 2.73675e+07 2.74082e+07 2.76098e+07 2.84355e+07 2.90928e+07
          2.54507e+07 2.55078e+07 2.55895e+07 2.59691e+07 2.63716e+07 2.6614e+07 2.73126e+07 2.79302e+07 2.80189e+07 2.78436e+07 2.78417e+07 2.79082e+07
          2.86285e+07 2.97116e+07 2.99029e+07 2.58399e+07 2.58987e+07 2.60613e+07 2.64776e+07 2.74586e+07 2.7578e+07 2.81388e+07 2.85765e+07 2.8637e+07
          2.86345e+07 2.85053e+07 2.91325e+07 3.00204e+07 3.06555e+07 3.03587e+07 2.67232e+07 2.67301e+07 2.69253e+07 2.74038e+07 2.83866e+07 2.84746e+07
          2.88402e+07 2.91111e+07 2.91621e+07 2.92353e+07 2.93655e+07 3.02362e+07 3.09252e+07 3.111e+07 3.09066e+07 2.74831e+07 2.75103e+07 2.77146e+07
          2.86809e+07 2.89697e+07 2.90293e+07 2.92861e+07 2.9455e+07 2.95058e+07 2.95838e+07 2.98958e+07 3.07034e+07 3.13052e+07 3.1636e+07 3.14213e+07
          2.82455e+07 2.8285e+07 2.8398e+07 2.92603e+07 2.94216e+07 2.946e+07 2.9586e+07 2.96981e+07 2.97472e+07 2.98125e+07 3.02402e+07 3.11974e+07
          3.18404e+07 3.21618e+07 3.18906e+07 2.88642e+07 2.8922e+07 2.92799e+07 2.95849e+07 2.97197e+07 2.97638e+07 2.98604e+07 2.99425e+07 2.99938e+07
          3.0053e+07 3.05814e+07 3.15928e+07 3.22488e+07 3.25094e+07 3.23578e+07 2.91846e+07 2.92509e+07 2.94734e+07 2.98051e+07 2.9977e+07 3.00247e+07
          3.01084e+07 3.01798e+07 3.02265e+07 3.02833e+07 3.08649e+07 3.19829e+07 3.26547e+07 3.28468e+07 3.30081e+07 2.94405e+07 2.94993e+07 2.97023e+07
          3.00322e+07 3.02006e+07 3.0249e+07 3.03297e+07 3.03969e+07 3.0444e+07 3.05077e+07 3.10837e+07 3.23163e+07 3.30547e+07 3.32032e+07 3.36257e+07
          2.96542e+07 2.97215e+07 2.98833e+07 3.01887e+07 3.03985e+07 3.04523e+07 3.05394e+07 3.06107e+07 3.06753e+07 3.07572e+07 3.15736e+07 3.28922e+07
          3.34251e+07 3.35828e+07 3.41045e+07 2.98586e+07 2.99287e+07 3.00728e+07 3.03717e+07 3.05859e+07 3.06456e+07 3.07474e+07 3.08296e+07 3.09149e+07
          3.10102e+07 3.21137e+07 3.34836e+07 3.38096e+07 3.40038e+07 3.45705e+07 3.00442e+07 3.01079e+07 3.02826e+07 3.05984e+07 3.07732e+07 3.08426e+07
          3.09634e+07 3.10595e+07 3.11711e+07 3.12913e+07 3.257e+07 3.39701e+07 3.42485e+07 3.44674e+07 3.49017e+07 3.0213e+07 3.02735e+07 3.04264e+07
          3.07436e+07 3.09691e+07 3.10404e+07 3.11769e+07 3.12894e+07 3.1427e+07 3.15908e+07 3.30751e+07 3.43917e+07 3.47015e+07 3.48986e+07 3.51933e+07
        </DataArray>
        <DataArray type="Float32" Name="velocity[0]" NumberOfComponents="1" format="ascii">
          -9.81165e-10 3.28282e-08 2.50698e-10 -5.18763e-10 -2.78712e-10 -1.252e-09 7.0131e-11 1.56856e-09 2.54501e-09 -1.28315e-10 -1.89958e-09 -2.68272e-09
          -1.79404e-09 -5.85546e-10 -2.73912e-09 -1.12639e-08 1.04313e-07 5.84145e-10 -7.85971e-09 1.36935e-10 2.09135e-09 9.58006e-09 6.49721e-09 5.89116e-09
          -1.80924e-09 -3.95627e-09 -1.14166e-08 -7.01316e-09 -1.82464e-09 -7.27073e-09 -6.46709e-08 2.10704e-07 1.2293e-09 1.53866e-08 7.99571e-10 6.18718e-09
          1.75881e-08 1.29564e-08 4.25761e-09 -5.2322e-09 -4.73285e-09 -2.85997e-08 -1.00691e-08 -3.91157e-09 -1.09068e-08 -5.89705e-08 2.1751e-07 6.71426e-09
          9.15042e-08 -7.15499e-10 -3.41721e-09 4.72918e-09 8.69904e-09 -2.43809e-09 -1.25066e-08 -6.12007e-09 -4.95152e-08 -7.1588e-09 -5.71296e-09 -1.48953e-08
          -8.71415e-08 -4.14123e-08 -2.41508e-10 -1.04075e-07 -1.29862e-08 -4.1158e-08 -3.65561e-08 -2.5435e-08 -6.14207e-09 -1.32115e-08 -8.66861e-09 -8.4812e-08
          -3.6341e-09 -5.2409e-09 -1.83743e-08 -1.74367e-07 -2.1747e-07 -7.36134e-09 -2.39114e-07 -2.9813e-08 -1.46738e-07 -7.79259e-08 -6.16968e-08 -5.06224e-09
          -6.11476e-09 -1.34808e-08 -1.24649e-07 -2.15705e-09 -4.18116e-09 -2.07165e-08 -1.76134e-07 -1.89451e-07 -2.37881e-09 -8.11937e-08 -3.22584e-08 -2.47912e-07
          -6.53701e-08 -1.22521e-07 -5.82455e-09 -3.12403e-09 -1.70908e-08 -1.53318e-07 -1.89724e-09 -4.1288e-09 -2.23418e-08 -1.61199e-07 -1.75003e-07 -2.39686e-09
          -1.97934e-08 -2.92103e-08 -2.57281e-07 -3.04603e-08 -2.29116e-07 -7.07227e-09 -2.87037e-09 -1.96903e-08 -1.73943e-07 -1.59376e-09 -4.25603e-09 -2.41777e-08
          -1.46067e-07 -1.58645e-07 -2.95408e-09 -5.62754e-09 -3.04439e-08 -2.38935e-07 -1.32299e-08 -3.18196e-07 -6.31218e-09 -3.31365e-09 -3.3209e-08 -1.69372e-07
          -1.53886e-09 -3.84192e-09 -2.66008e-08 -1.18737e-07 -1.43995e-07 -1.04644e-08 -2.27835e-09 -3.03456e-08 -2.30371e-07 -4.39996e-09 -3.87603e-07 -5.87702e-09
          -3.7468e-09 -5.63333e-08 -1.43262e-07 -2.41896e-09 -3.19757e-09 -2.90262e-08 -8.69563e-08 -1.33812e-07 -2.04843e-08 -2.21898e-09 -3.08603e-08 -2.24311e-07
          -1.48819e-09 -4.37489e-07 -1.07933e-08 -5.20985e-09 -7.19836e-08 -1.14355e-07 -5.44711e-09 -3.48975e-09 -3.12402e-08 -6.69985e-08 -1.24331e-07 -2.52262e-08
          -1.32331e-09 -3.29925e-08 -2.25717e-07 -1.20681e-09 -4.64436e-07 -1.95489e-08 -9.63257e-09 -7.62189e-08 -7.87166e-08 -1.15942e-08 -6.42096e-09 -3.36126e-08
          -5.58181e-08 -1.16928e-07 -2.33092e-08 -2.34659e-09 -2.76313e-08 -2.23358e-07 -1.75204e-09 -4.8832e-07 -4.43076e-08 -1.1154e-08 -6.78552e-08 -3.40032e-08
          -2.62835e-08 -1.37593e-08 -3.49444e-08 -4.72897e-08 -1.11463e-07 -1.9216e-08 -7.19474e-09 -2.28718e-08 -2.16041e-07 -1.84872e-09 -4.89533e-07 -8.27481e-08
          -1.61237e-08 -4.06136e-08 -7.92961e-09 -3.5314e-08 -2.70231e-08 -3.342e-08 -4.79208e-08 -9.24984e-08 -1.56496e-08 -8.28379e-09 -2.91163e-08 -2.189e-07
          -1.35443e-09 -4.64051e-07 -1.04566e-07 -2.62201e-08 -1.87415e-08 -4.37999e-09 -3.29971e-08 -4.30225e-08 -2.97179e-08 -5.68407e-08 -6.57843e-08 -1.22064e-08
          -5.01495e-09 -3.66057e-08 -2.22359e-07 -1.73509e-09 -4.0099e-07 -1.10531e-07 -3.41708e-08 -9.98112e-09 -5.50664e-09 -3.71879e-08 -6.38764e-08 -2.48432e-08
          -6.11163e-08 -4.84327e-08 -8.65244e-09 -5.46617e-09 -5.15269e-08 -1.96045e-07 -3.30362e-09 -3.1957e-07 -1.11926e-07 -5.23106e-08 -3.84253e-09 -5.27164e-09
          -3.05546e-08 -9.51223e-08 -1.96363e-08 -6.12412e-08 -3.84959e-08 -3.08046e-09 -4.05699e-09 -7.67128e-08 -1.41658e-07 -4.99652e-09 -2.4464e-07 -1.21232e-07
          -7.95881e-08 -2.67692e-09 -3.54124e-09 -1.98582e-08 -1.24466e-07 -1.52731e-08 -5.56525e-08 -2.75828e-08 -1.58977e-09 -1.48275e-09 -9.4783e-08 -9.00066e-08
          -5.25716e-09 -1.75075e-07 -1.21403e-07 -1.25295e-07 -1.5551e-09 -2.91513e-09 -2.59832e-08 -1.4233e-07 -1.33419e-08 -4.63986e-08 -1.86353e-08 -1.53189e-09
          -6.73056e-10 -1.00874e-07 -5.11459e-08 -4.38813e-09 -1.28338e-07 -7.8584e-08 -2.17188e-07 -2.71646e-09 -4.14741e-09 -3.86369e-08 -1.50981e-07 -1.43393e-08
          -3.55487e-08 -1.2554e-08 -1.37374e-09 -1.81914e-10 -9.38028e-08 -2.6732e-08 -3.76349e-09 -1.01042e-07 -3.28827e-08 -3.01189e-07 -4.26087e-09 -7.6419e-09
          -4.70024e-08 -1.57819e-07 -1.64604e-08 -2.23895e-08 -6.41475e-09 -2.14739e-09 -8.36372e-10 -6.93203e-08 -1.81624e-08 -3.67517e-09 -9.52688e-08 -1.783e-08
          -3.18245e-07 -3.88674e-09 -1.46781e-08 -5.14557e-08 -1.64752e-07 -2.04166e-08 -1.04618e-08 -2.56893e-09 -9.68271e-10 -5.53918e-10 -3.45744e-08 -1.35357e-08
          -3.01231e-09 -1.00343e-07 -1.43565e-08 -2.74071e-07 -5.39208e-09 -2.53055e-08 -6.74894e-08 -1.71667e-07 -2.66471e-08 -2.77327e-09 -5.79083e-10 2.10877e-10
          7.57876e-11 -8.13798e-09 -5.16011e-09 -1.10167e-09 -5.10903e-08 -6.68384e-09 -1.18464e-07 -3.55722e-09 -1.53517e-08 -4.03019e-08 -8.82316e-08 -1.49601e-08
        </DataArray>
        <DataArray type="Float32" Name="velocity[1]" NumberOfComponents="1" format="ascii">
          1.52485e-25 5.1914e-24 7.26342e-26 -8.0622e-26 4.33152e-26 0 -1.08992e-26 -2.09351e-25 4.66756e-26 5.70869e-24 -3.69951e-24 3.78232e-26
          2.44242e-24 -9.70253e-25 4.25672e-25 1.44558e-24 5.93307e-24 6.74403e-26 -1.06025e-24 -1.82215e-25 7.2376e-24 1.28684e-24 3.7996e-25 -6.8402e-24
          -1.42101e-25 0 -3.60385e-26 4.12474e-26 1.32297e-28 2.78574e-25 6.8545e-24 -8.41624e-24 -1.55383e-24 4.673e-24 -2.13168e-25 0
          1.47738e-25 -5.28783e-25 -3.78379e-25 0 7.07054e-24 -1.10335e-23 0 1.14617e-24 -2.86569e-25 -1.54447e-23 2.0758e-23 -1.46921e-24
          -8.62728e-24 3.17422e-25 9.41129e-24 -2.16153e-23 2.45345e-23 -4.13746e-24 1.16978e-24 3.52656e-24 -4.6796e-24 3.18903e-24 -1.33339e-24 1.00002e-24
          -9.10567e-26 -6.15411e-23 5.79337e-24 1.01925e-23 -4.66384e-25 -4.83212e-24 1.79467e-25 -1.34466e-25 -1.39121e-25 -6.73823e-24 4.32203e-24 -7.93045e-24
          7.63438e-30 1.30545e-25 -1.53146e-24 -1.25712e-25 6.81801e-24 -6.05399e-25 7.86177e-24 2.45815e-25 -1.25861e-23 0 -1.43265e-25 -1.37625e-25
          3.28869e-25 -4.71513e-25 5.65649e-24 -1.4726e-24 8.71666e-25 1.53143e-24 -1.00635e-24 1.16155e-24 0 8.40853e-24 -3.5264e-25 -1.40419e-23
          -2.02734e-25 -1.25223e-25 -3.74512e-24 2.04918e-28 1.614e-28 -2.73731e-28 3.6133e-26 1.01069e-28 -1.68812e-24 -1.69614e-25 1.29306e-23 1.28432e-24
          3.05192e-24 -9.022e-26 2.29504e-23 3.8249e-25 9.94693e-26 1.57302e-26 -5.19226e-26 -3.81701e-24 -1.30629e-23 2.03338e-28 -3.72231e-25 1.97343e-24
          -1.3659e-24 -9.3477e-24 -6.42405e-26 -1.49186e-24 -2.73086e-26 3.75704e-24 0 0 -5.11948e-25 -8.81927e-28 1.00036e-24 3.37217e-24
          4.79025e-28 5.84105e-26 1.19077e-28 -1.07535e-23 1.31678e-24 1.52105e-24 -2.16225e-25 -2.58001e-24 3.73813e-24 -6.91941e-24 5.53195e-24 5.71958e-25
          -5.03574e-26 -5.1168e-25 3.37634e-24 -8.42411e-25 0 -2.16064e-24 4.08475e-24 7.70394e-26 4.38978e-25 -2.36413e-25 2.38517e-24 5.69781e-28
          -4.38574e-24 4.44977e-24 7.16402e-25 1.75354e-25 8.72833e-26 8.39365e-24 1.806e-24 -3.08397e-25 1.54198e-25 -4.59787e-24 1.85306e-24 -2.98075e-25
          3.08248e-26 -1.79166e-24 -1.77248e-23 2.93244e-26 1.96791e-24 -2.06338e-24 -5.10389e-25 5.33074e-25 2.82026e-24 -1.99173e-24 1.11156e-24 -2.14275e-25
          4.07698e-24 9.19977e-24 0 -1.73055e-25 -9.59928e-25 7.37604e-25 5.72035e-26 1.74964e-24 -3.20643e-24 4.75264e-28 -4.60608e-24 -8.76592e-25
          1.73588e-24 -6.8275e-25 -1.82224e-28 -8.04463e-25 4.51325e-28 1.01872e-24 -1.16153e-24 3.22099e-27 1.5969e-23 -3.85589e-26 -1.55627e-24 4.09242e-24
          1.42803e-24 4.6064e-24 2.45589e-24 -4.65299e-24 1.81976e-28 -2.48214e-24 -3.27255e-24 -6.02583e-24 5.15514e-28 8.49275e-25 7.47754e-25 -3.46236e-28
          -3.64341e-26 -6.41434e-24 1.78383e-24 0 0 3.55763e-25 3.81308e-24 -5.05151e-25 4.61872e-24 0 1.82817e-24 0
          -3.41258e-25 4.1808e-25 -4.11288e-28 9.5592e-26 -7.39836e-24 6.19261e-28 6.37343e-28 4.07764e-28 4.14578e-24 1.29779e-29 -1.22044e-24 -2.13613e-24
          -1.50521e-28 8.68815e-25 6.14276e-28 -1.68177e-25 1.90357e-24 -1.02496e-23 0 -1.05209e-23 0 -4.60293e-28 3.03049e-24 -3.75675e-24
          -1.70937e-24 1.67849e-28 1.32715e-24 0 3.32927e-24 0 5.08588e-25 1.74462e-24 4.97178e-24 1.13761e-25 -6.38979e-24 -5.54578e-24
          -2.13366e-24 1.81078e-25 5.32191e-26 9.91515e-29 -1.74675e-24 -1.04647e-24 3.97091e-24 -1.96636e-24 2.16508e-24 -1.79064e-24 7.97616e-25 8.67289e-24
          -7.32676e-26 -4.42131e-24 1.01864e-23 5.398e-24 -3.2466e-24 7.07779e-26 9.04881e-25 -3.69937e-28 1.02701e-24 4.88562e-28 -3.58347e-24 7.75533e-25
          -1.64924e-24 2.98767e-25 -2.68379e-24 -1.22444e-25 -5.68389e-24 -5.15179e-24 9.31218e-24 2.64311e-25 3.47676e-24 1.0617e-24 -3.49199e-25 -8.52545e-25
          -9.55265e-25 5.75682e-25 0 -3.48993e-26 -1.24874e-24 4.3259e-24 -7.60562e-24 7.6081e-24 -5.58229e-24 6.62388e-28 0 0
          2.38483e-25 -6.26379e-28 1.35667e-24 -1.08983e-24 -1.1458e-24 1.05743e-24 -1.77832e-24 -9.50584e-25 -1.30058e-24 2.05764e-26 5.02937e-25 -3.63907e-24
          1.31668e-23 -2.51814e-25 -6.3349e-24 4.53294e-25 9.20123e-25 -1.5515e-29 -7.63324e-25 -6.81149e-28 -7.08303e-28 1.07528e-25 -2.84462e-24 5.00795e-25
          -1.25723e-25 9.92797e-24 -4.13182e-24 0 -2.67673e-25 -8.38619e-25 6.44718e-24 -7.46205e-25 0 -4.31559e-25 -6.31915e-28 -3.52951e-25
          5.9873e-25 -1.26386e-24 -2.09015e-24 -3.44489e-25 -2.70685e-24 1.03875e-24 -2.87468e-23 0 2.87545e-23 -2.10945e-23 1.74326e-23 4.37611e-25
        </DataArray>
        <DataArray type="Float32" Name="velocity[2]" NumberOfComponents="1" format="ascii">
          -1.05746e-10 4.31062e-09 -3.0277e-09 -3.08488e-09 -2.93865e-09 -2.98777e-09 -2.66801e-09 -2.43142e-09 -2.42984e-09 -3.01468e-09 -3.16326e-09 -2.98327e-09
          -2.50927e-09 -2.04193e-09 -1.39608e-09 -1.36315e-09 1.77311e-08 -2.4381e-09 -3.52063e-09 -1.74613e-09 -1.60877e-09 -7.25426e-10 -1.59396e-09 -1.81395e-09
          -3.12103e-09 -3.38806e-09 -4.29541e-09 -2.89592e-09 -1.62591e-09 -1.87962e-09 -8.45257e-09 3.9672e-08 -6.7505e-10 3.36306e-10 -3.65649e-09 -2.6193e-09
          -5.09873e-10 -1.35014e-09 -2.79051e-09 -4.19697e-09 -3.94776e-09 -7.40912e-09 -3.46973e-09 -2.15793e-09 -2.53782e-09 -1.37014e-08 3.47716e-08 2.49992e-10
          1.25502e-08 -5.83536e-09 -5.72278e-09 -3.50298e-09 -2.2715e-09 -3.74028e-09 -4.98468e-09 -3.54621e-09 -1.05362e-08 -2.64557e-09 -2.49858e-09 -3.34101e-09
          -1.01284e-08 -9.12533e-10 -9.68684e-10 -2.5788e-08 -1.23498e-08 -1.52684e-08 -1.22362e-08 -8.71104e-09 -4.56178e-09 -5.95559e-09 -5.19033e-09 -1.69644e-08
          -1.18472e-09 -1.67363e-09 -3.68474e-09 -3.00763e-08 -3.80545e-08 -2.42575e-09 -4.88747e-08 -1.67725e-08 -3.32988e-08 -1.71322e-08 -1.36451e-08 -3.37019e-09
          -3.62954e-09 -4.82104e-09 -2.33721e-08 -9.46171e-10 -1.37269e-09 -3.98904e-09 -3.149e-08 -3.45046e-08 -1.73204e-09 -1.81066e-08 -1.20958e-08 -4.89792e-08
          -1.61336e-08 -2.54277e-08 -3.36625e-09 -2.82032e-09 -5.27022e-09 -2.83942e-08 -8.17313e-10 -1.16754e-09 -4.14547e-09 -2.88489e-08 -3.20472e-08 -1.90311e-09
          -5.40101e-09 -7.47981e-09 -4.84818e-08 -9.68611e-09 -4.36141e-08 -3.00698e-09 -2.25572e-09 -5.0804e-09 -3.17755e-08 -1.04376e-09 -1.55591e-09 -4.66945e-09
          -2.61897e-08 -2.9166e-08 -2.0027e-09 -2.67138e-09 -7.28904e-09 -4.42302e-08 -4.7833e-09 -5.78164e-08 -1.97284e-09 -1.48439e-09 -6.02292e-09 -2.99512e-08
          -9.80952e-10 -1.41742e-09 -5.091e-09 -2.21773e-08 -2.81132e-08 -4.17543e-09 -2.09316e-09 -7.07952e-09 -4.26295e-08 -3.08512e-09 -6.97727e-08 -1.49586e-09
          -1.09069e-09 -9.61419e-09 -2.51219e-08 -1.17569e-09 -1.3318e-09 -5.52489e-09 -1.61197e-08 -2.532e-08 -5.25942e-09 -1.85072e-09 -6.87296e-09 -4.09615e-08
          -1.72873e-09 -7.82413e-08 -2.34177e-09 -1.03494e-09 -1.25095e-08 -2.05449e-08 -1.98435e-09 -1.37038e-09 -5.83942e-09 -1.2336e-08 -2.32656e-08 -5.92197e-09
          -1.54586e-09 -7.09126e-09 -4.09198e-08 -1.21531e-09 -8.25558e-08 -3.52252e-09 -1.39543e-09 -1.29921e-08 -1.47385e-08 -3.98761e-09 -2.44616e-09 -6.38661e-09
          -1.00661e-08 -2.11374e-08 -5.03395e-09 -1.61456e-09 -6.34872e-09 -4.14143e-08 -2.54981e-09 -8.80385e-08 -8.2066e-09 -1.19379e-09 -1.18059e-08 -7.74279e-09
          -6.9997e-09 -3.21827e-09 -6.14214e-09 -8.68226e-09 -2.05418e-08 -4.5017e-09 -2.21846e-09 -4.71994e-09 -3.882e-08 -1.18522e-09 -8.74383e-08 -1.49209e-08
          -1.83763e-09 -7.06914e-09 -2.69141e-09 -7.86354e-09 -5.16247e-09 -5.40058e-09 -8.06291e-09 -1.62838e-08 -3.76725e-09 -2.88793e-09 -6.43774e-09 -3.93933e-08
          -7.85817e-10 -8.27931e-08 -1.95756e-08 -5.38623e-09 -4.13683e-09 -1.81994e-09 -6.88996e-09 -7.3854e-09 -4.49817e-09 -9.81545e-09 -1.17733e-08 -2.92599e-09
          -1.70154e-09 -7.16112e-09 -3.98654e-08 -1.03811e-09 -7.26933e-08 -2.26282e-08 -8.86278e-09 -4.76581e-09 -4.24932e-09 -9.46317e-09 -1.16862e-08 -3.49691e-09
          -1.06994e-08 -8.66488e-09 -2.2264e-09 -1.90781e-09 -9.3238e-09 -3.52905e-08 -2.41475e-09 -5.90596e-08 -2.33806e-08 -1.23645e-08 -3.31653e-09 -3.69918e-09
          -8.98431e-09 -1.80853e-08 -2.60965e-09 -1.08682e-08 -7.14441e-09 -1.30414e-09 -1.78797e-09 -1.40293e-08 -2.61894e-08 -3.48343e-09 -4.68016e-08 -2.5554e-08
          -1.70705e-08 -2.9964e-09 -3.19604e-09 -6.06339e-09 -2.26158e-08 -2.0907e-09 -1.01151e-08 -5.79836e-09 -1.48799e-09 -1.41678e-09 -1.76002e-08 -1.74933e-08
          -3.57067e-09 -3.42869e-08 -2.61629e-08 -2.61515e-08 -3.08717e-09 -3.38859e-09 -7.09545e-09 -2.61183e-08 -2.31053e-09 -8.49383e-09 -4.03195e-09 -1.19797e-09
          -1.14588e-09 -1.88e-08 -1.07857e-08 -3.35693e-09 -2.57117e-08 -1.94144e-08 -4.34466e-08 -3.12367e-09 -3.16702e-09 -8.69195e-09 -2.77088e-08 -2.90247e-09
          -6.67843e-09 -3.2191e-09 -1.38467e-09 -1.11491e-09 -1.80409e-08 -6.97729e-09 -3.26801e-09 -2.06681e-08 -9.64418e-09 -5.67463e-08 -3.43438e-09 -3.93208e-09
          -1.06619e-08 -2.92973e-08 -3.23528e-09 -4.41576e-09 -2.18855e-09 -1.54013e-09 -1.27026e-09 -1.42029e-08 -6.12569e-09 -3.63357e-09 -1.96946e-08 -6.10265e-09
          -5.9506e-08 -4.36869e-09 -5.97135e-09 -1.19479e-08 -3.13771e-08 -4.586e-09 -2.17269e-09 -1.1796e-09 -1.08897e-09 -1.17238e-09 -8.18314e-09 -5.59991e-09
          -3.9164e-09 -2.10519e-08 -5.90019e-09 -5.32414e-08 -7.23998e-09 -1.03178e-08 -1.65578e-08 -3.32531e-08 -5.78988e-09 -6.74144e-10 -5.01519e-10 -3.73514e-10
          -3.76023e-10 -2.25526e-09 -2.40563e-09 -1.96068e-09 -1.21673e-08 -6.10081e-09 -3.09497e-08 -1.32556e-08 -1.16118e-08 -1.32461e-08 -1.84917e-08 -3.10726e-09
        </DataArray>
        <DataArray type="Float32" Name="z[0]" NumberOfComponents="1" format="ascii">
          0.150578 0.150579 0.15058 0.150582 0.150582 0.150583 0.150584 0.150585 0.150585 0.150586 0.150587 0.150588
          0.150589 0.150591 0.150596 0.150581 0.150582 0.150583 0.150585 0.150586 0.150587 0.150587 0.150588 0.150588
          0.150589 0.15059 0.150591 0.150593 0.150595 0.150599 0.150584 0.150585 0.150587 0.150588 0.150589 0.15059
          0.15059 0.150591 0.150592 0.150593 0.150593 0.150595 0.150596 0.150598 0.150602 0.150588 0.150589 0.15059
          0.150591 0.150592 0.150593 0.150594 0.150594 0.150595 0.150596 0.150597 0.150598 0.150599 0.150601 0.150605
          0.150591 0.150592 0.150593 0.150594 0.150595 0.150596 0.150597 0.150621 0.150598 0.150599 0.1506 0.150601
          0.150602 0.150604 0.150609 0.150594 0.150595 0.150596 0.150597 0.150598 0.150599 0.150632 0.33056 0.150601