<?xml version="1.0"?>
<VTKFile type="UnstructuredGrid" version="0.1" byte_order="LittleEndian">
  <UnstructuredGrid>
    <Piece NumberOfCells="360" NumberOfPoints="800">
      <CellData Scalars="pressure[0]">
        <DataArray type="Float32" Name="pressure[0]" NumberOfComponents="1" format="ascii">
          2.09502e+07 2.09647e+07 2.14503e+07 2.19581e+07 2.23289e+07 2.2768e+07 2.29103e+07 2.29621e+07 2.30253e+07 2.30954e+07 2.33113e+07 2.3669e+07
          2.39346e+07 2.45967e+07 2.53681e+07 2.09941e+07 2.10086e+07 2.15461e+07 2.20707e+07 2.24823e+07 2.29444e+07 2.30506e+07 2.30909e+07 2.31569e+07
          2.32383e+07 2.35462e+07 2.39115e+07 2.41224e+07 2.47948e+07 2.55356e+07 2.10381e+07 2.10526e+07 2.16152e+07 2.22067e+07 2.25677e+07 2.30009e+07
          2.31306e+07 2.31917e+07 2.32815e+07 2.33988e+07 2.38248e+07 2.42486e+07 2.44454e+07 2.50537e+07 2.57496e+07 2.10826e+07 2.10977e+07 2.14769e+07
          2.23374e+07 2.26823e+07 2.30917e+07 2.32099e+07 2.32655e+07 2.34151e+07 2.36164e+07 2.41948e+07 2.46654e+07 2.48439e+07 2.53577e+07 2.60169e+07
          2.11754e+07 2.11995e+07 1.97764e+07 2.24312e+07 2.28479e+07 2.32811e+07 2.33607e+07 2.34026e+07 2.36756e+07 2.40947e+07 2.46405e+07 2.50616e+07
          2.52366e+07 2.56994e+07 2.62788e+07 2.13721e+07 2.1415e+07 2.19142e+07 2.28585e+07 2.30958e+07 2.37687e+07 2.38435e+07 2.39032e+07 2.41832e+07
          2.46532e+07 2.51539e+07 2.54137e+07 2.5601e+07 2.60445e+07 2.65722e+07 2.16239e+07 2.16737e+07 2.25568e+07 2.3362e+07 2.38508e+07 2.43625e+07
          2.44418e+07 2.45253e+07 2.47038e+07 2.52023e+07 2.56158e+07 2.57204e+07 2.58991e+07 2.64164e+07 2.69806e+07 2.1985e+07 2.2039e+07 2.31335e+07
          2.39647e+07 2.43159e+07 2.49193e+07 2.49851e+07 2.50513e+07 2.52277e+07 2.56349e+07 2.59153e+07 2.59919e+07 2.62326e+07 2.67974e+07 2.75446e+07
          2.25094e+07 2.25733e+07 2.36126e+07 2.44604e+07 2.50513e+07 2.54214e+07 2.55439e+07 2.56676e+07 2.58165e+07 2.60827e+07 2.62233e+07 2.6252e+07
          2.65015e+07 2.72246e+07 2.8106e+07 2.31448e+07 2.32506e+07 2.39228e+07 2.46306e+07 2.55836e+07 2.5859e+07 2.61252e+07 2.63794e+07 2.64518e+07
          2.65407e+07 2.65971e+07 2.66241e+07 2.68863e+07 2.76525e+07 2.84387e+07 2.40734e+07 2.42129e+07 2.4508e+07 2.50514e+07 2.59505e+07 2.61789e+07
          2.65942e+07 2.69601e+07 2.70143e+07 2.69911e+07 2.69787e+07 2.70141e+07 2.72335e+07 2.80032e+07 2.86852e+07 2.47342e+07 2.4813e+07 2.4971e+07
          2.53111e+07 2.63881e+07 2.64975e+07 2.7065e+07 2.75199e+07 2.75401e+07 2.74271e+07 2.73777e+07 2.73955e+07 2.76112e+07 2.83573e+07 2.94131e+07
          2.5207e+07 2.52753e+07 2.54107e+07 2.57655e+07 2.69287e+07 2.70446e+07 2.76444e+07 2.81614e+07 2.8252e+07 2.80844e+07 2.7883e+07 2.82899e+07
          2.89097e+07 2.9907e+07 3.01413e+07 2.62351e+07 2.62789e+07 2.61645e+07 2.65336e+07 2.78264e+07 2.79393e+07 2.84294e+07 2.88123e+07 2.88804e+07
          2.89362e+07 2.89519e+07 2.94896e+07 3.02315e+07 3.08058e+07 3.05742e+07 2.70548e+07 2.70538e+07 2.7111e+07 2.81829e+07 2.87112e+07 2.87761e+07
          2.9098e+07 2.93306e+07 2.93823e+07 2.94621e+07 2.9616e+07 3.04316e+07 3.10677e+07 3.12492e+07 3.10921e+07 2.77738e+07 2.77973e+07 2.79302e+07
          2.89795e+07 2.92298e+07 2.92853e+07 2.95133e+07 2.96625e+07 2.97126e+07 2.97888e+07 3.00953e+07 3.08647e+07 3.1437e+07 3.17567e+07 3.15811e+07
          2.85059e+07 2.85544e+07 2.87573e+07 2.95026e+07 2.96464e+07 2.9685e+07 2.98008e+07 2.99029e+07 2.99514e+07 3.00157e+07 3.04256e+07 3.13384e+07
          3.19518e+07 3.2262e+07 3.20293e+07 2.9094e+07 2.91531e+07 2.95125e+07 2.98046e+07 2.99332e+07 2.99773e+07 3.00678e+07 3.01442e+07 3.01948e+07
          3.02532e+07 3.07574e+07 3.17206e+07 3.23463e+07 3.2599e+07 3.24762e+07 2.94093e+07 2.94755e+07 2.96945e+07 3.00164e+07 3.01832e+07 3.02307e+07
          3.03104e+07 3.0378e+07 3.04243e+07 3.04805e+07 3.10346e+07 3.20982e+07 3.27384e+07 3.29263e+07 3.30957e+07 2.96616e+07 2.97203e+07 2.99187e+07
          3.02387e+07 3.04024e+07 3.04506e+07 3.05281e+07 3.05923e+07 3.0639e+07 3.07017e+07 3.12503e+07 3.24219e+07 3.31251e+07 3.32715e+07 3.36852e+07
          2.98733e+07 2.994e+07 3.00982e+07 3.03943e+07 3.05978e+07 3.06511e+07 3.0735e+07 3.08034e+07 3.08666e+07 3.09466e+07 3.17228e+07 3.29754e+07
          3.34837e+07 3.36387e+07 3.41451e+07 3.0076e+07 3.01453e+07 3.02863e+07 3.05759e+07 3.07834e+07 3.08423e+07 3.09403e+07 3.10193e+07 3.11021e+07
          3.11946e+07 3.22425e+07 3.35434e+07 3.38554e+07 3.4045e+07 3.45932e+07 3.02605e+07 3.03238e+07 3.04939e+07 3.07995e+07 3.09691e+07 3.10372e+07
          3.11532e+07 3.12454e+07 3.13531e+07 3.14693e+07 3.26829e+07 3.40118e+07 3.42787e+07 3.44916e+07 3.49146e+07 3.04289e+07 3.04891e+07 3.06383e+07
          3.09449e+07 3.11629e+07 3.12328e+07 3.13638e+07 3.14716e+07 3.16039e+07 3.17614e+07 3.31693e+07 3.44191e+07 3.47154e+07 3.49077e+07 3.51987e+07
        </DataArray>
        <DataArray type="Float32" Name="pressure[1]" NumberOfComponents="1" format="ascii">
          2.09502e+07 2.09647e+07 2.14503e+07 2.19581e+07 2.23289e+07 2.2768e+07 2.29103e+07 2.29621e+07 2.30253e+07 2.30954e+07 2.33113e+07 2.3669e+07
          2.39346e+07 2.45967e+07 2.53681e+07 2.09941e+07 2.10086e+07 2.15461e+07 2.20707e+07 2.24823e+07 2.29444e+07 2.30506e+07 2.30909e+07 2.31569e+07
          2.32383e+07 2.35462e+07 2.39115e+07 2.41224e+07 2.47948e+07 2.55356e+07 2.10381e+07 2.10526e+07 2.16152e+07 2.22067e+07 2.25677e+07 2.30009e+07
          2.31306e+07 2.31917e+07 2.32815e+07 2.33988e+07 2.38248e+07 2.42486e+07 2.44454e+07 2.50537e+07 2.57496e+07 2.10826e+07 2.10977e+07 2.14769e+07
          2.23374e+07 2.26823e+07 2.30917e+07 2.32099e+07 2.32655e+07 2.34151e+07 2.36164e+07 2.41948e+07 2.46654e+07 2.48439e+07 2.53577e+07 2.60169e+07
          2.11754e+07 2.11995e+07 1.97764e+07 2.24312e+07 2.28479e+07 2.32811e+07 2.33607e+07 2.34026e+07 2.36756e+07 2.40947e+07 2.46405e+07 2.50616e+07
          2.52366e+07 2.56994e+07 2.62788e+07 2.13721e+07 2.1415e+07 2.19142e+07 2.28585e+07 2.30958e+07 2.37687e+07 2.38435e+07 2.39032e+07 2.41832e+07
          2.46532e+07 2.51539e+07 2.54137e+07 2.5601e+07 2.60445e+07 2.65722e+07 2.16239e+07 2.16737e+07 2.25568e+07 2.3362e+07 2.38508e+07 2.43625e+07
          2.44418e+07 2.45253e+07 2.47038e+07 2.52023e+07 2.56158e+07 2.57204e+07 2.58991e+07 2.64164e+07 2.69806e+07 2.1985e+07 2.2039e+07 2.31335e+07
          2.39647e+07 2.43159e+07 2.49193e+07 2.49851e+07 2.50513e+07 2.52277e+07 2.56349e+07 2.59153e+07 2.59919e+07 2.62326e+07 2.67974e+07 2.75446e+07
          2.25094e+07 2.25733e+07 2.36126e+07 2.44604e+07 2.50513e+07 2.54214e+07 2.55439e+07 2.56676e+07 2.58165e+07 2.60827e+07 2.62233e+07 2.6252e+07
          2.65015e+07 2.72246e+07 2.8106e+07 2.31448e+07 2.32506e+07 2.39228e+07 2.46306e+07 2.55836e+07 2.5859e+07 2.61252e+07 2.63794e+07 2.64518e+07
          2.65407e+07 2.65971e+07 2.66241e+07 2.68863e+07 2.76525e+07 2.84387e+07 2.40734e+07 2.42129e+07 2.4508e+07 2.50514e+07 2.59505e+07 2.61789e+07
          2.65942e+07 2.69601e+07 2.70143e+07 2.69911e+07 2.69787e+07 2.70141e+07 2.72335e+07 2.80032e+07 2.86852e+07 2.47342e+07 2.4813e+07 2.4971e+07
          2.53111e+07 2.63881e+07 2.64975e+07 2.7065e+07 2.75199e+07 2.75401e+07 2.74271e+07 2.73777e+07 2.73955e+07 2.76112e+07 2.83573e+07 2.94131e+07
          2.5207e+07 2.52753e+07 2.54107e+07 2.57655e+07 2.69287e+07 2.70446e+07 2.76444e+07 2.81614e+07 2.8252e+07 2.80844e+07 2.7883e+07 2.82899e+07
          2.89097e+07 2.9907e+07 3.01413e+07 2.62351e+07 2.62789e+07 2.61645e+07 2.65336e+07 2.78264e+07 2.79393e+07 2.84294e+07 2.88123e+07 2.88804e+07
          2.89362e+07 2.89519e+07 2.94896e+07 3.02315e+07 3.08058e+07 3.05742e+07 2.70548e+07 2.70538e+07 2.7111e+07 2.81829e+07 2.87112e+07 2.87761e+07
          2.9098e+07 2.93306e+07 2.93823e+07 2.94621e+07 2.9616e+07 3.04316e+07 3.10677e+07 3.12492e+07 3.10921e+07 2.77738e+07 2.77973e+07 2.79302e+07
          2.89795e+07 2.92298e+07 2.92853e+07 2.95133e+07 2.96625e+07 2.97126e+07 2.97888e+07 3.00953e+07 3.08647e+07 3.1437e+07 3.17567e+07 3.15811e+07
          2.85059e+07 2.85544e+07 2.87573e+07 2.95026e+07 2.96464e+07 2.9685e+07 2.98008e+07 2.99029e+07 2.99514e+07 3.00157e+07 3.04256e+07 3.13384e+07
          3.19518e+07 3.2262e+07 3.20293e+07 2.9094e+07 2.91531e+07 2.95125e+07 2.98046e+07 2.99332e+07 2.99773e+07 3.00678e+07 3.01442e+07 3.01948e+07
          3.02532e+07 3.07574e+07 3.17206e+07 3.23463e+07 3.2599e+07 3.24762e+07 2.94093e+07 2.94755e+07 2.96945e+07 3.00164e+07 3.01832e+07 3.02307e+07
          3.03104e+07 3.0378e+07 3.04243e+07 3.04805e+07 3.10346e+07 3.20982e+07 3.27384e+07 3.29263e+07 3.30957e+07 2.96616e+07 2.97203e+07 2.99187e+07
          3.02387e+07 3.04024e+07 3.04506e+07 3.05281e+07 3.05923e+07 3.0639e+07 3.07017e+07 3.12503e+07 3.24219e+07 3.31251e+07 3.32715e+07 3.36852e+07
          2.98733e+07 2.994e+07 3.00982e+07 3.03943e+07 3.05978e+07 3.06511e+07 3.0735e+07 3.08034e+07 3.08666e+07 3.09466e+07 3.17228e+07 3.29754e+07
          3.34837e+07 3.36387e+07 3.41451e+07 3.0076e+07 3.01453e+07 3.02863e+07 3.05759e+07 3.07834e+07 3.08423e+07 3.09403e+07 3.10193e+07 3.11021e+07
          3.11946e+07 3.22425e+07 3.35434e+07 3.38554e+07 3.4045e+07 3.45932e+07 3.02605e+07 3.03238e+07 3.04939e+07 3.07995e+07 3.09691e+07 3.10372e+07
          3.11532e+07 3.12454e+07 3.13531e+07 3.14693e+07 3.26829e+07 3.40118e+07 3.42787e+07 3.44916e+07 3.49146e+07 3.04289e+07 3.04891e+07 3.06383e+07
          3.09449e+07 3.11629e+07 3.12328e+07 3.13638e+07 3.14716e+07 3.16039e+07 3.17614e+07 3.31693e+07 3.44191e+07 3.47154e+07 3.49077e+07 3.51987e+07
        </DataArray>
        <DataArray type="Float32" Name="pressure[2]" NumberOfComponents="1" format="ascii">
          2.09502e+07 2.09647e+07 2.14503e+07 2.19581e+07 2.23289e+07 2.2768e+07 2.29103e+07 2.29621e+07 2.30253e+07 2.30954e+07 2.33113e+07 2.3669e+07
          2.39346e+07 2.45967e+07 2.53681e+07 2.09941e+07 2.10086e+07 2.15461e+07 2.20707e+07 2.24823e+07 2.29444e+07 2.30506e+07 2.30909e+07 2.31569e+07
          2.32383e+07 2.35462e+07 2.39115e+07 2.41224e+07 2.47948e+07 2.55356e+07 2.10381e+07 2.10526e+07 2.16152e+07 2.22067e+07 2.25677e+07 2.30009e+07
          2.31306e+07 2.31917e+07 2.32815e+07 2.33988e+07 2.38248e+07 2.42486e+07 2.44454e+07 2.50537e+07 2.57496e+07 2.10826e+07 2.10977e+07 2.14769e+07
          2.23374e+07 2.26823e+07 2.30917e+07 2.32099e+07 2.32655e+07 2.34151e+07 2.36164e+07 2.41948e+07 2.46654e+07 2.48439e+07 2.53577e+07 2.60169e+07
          2.11754e+07 2.11995e+07 1.97764e+07 2.24312e+07 2.28479e+07 2.32811e+07 2.33607e+07 2.34026e+07 2.36756e+07 2.40947e+07 2.46405e+07 2.50616e+07
          2.52366e+07 2.56994e+07 2.62788e+07 2.13721e+07 2.1415e+07 2.19142e+07 2.28585e+07 2.30958e+07 2.37687e+07 2.38435e+07 2.39032e+07 2.41832e+07
          2.46532e+07 2.51539e+07 2.54137e+07 2.5601e+07 2.60445e+07 2.65722e+07 2.16239e+07 2.16737e+07 2.25568e+07 2.3362e+07 2.38508e+07 2.43625e+07
          2.44418e+07 2.45253e+07 2.47038e+07 2.52023e+07 2.56158e+07 2.57204e+07 2.58991e+07 2.64164e+07 2.69806e+07 2.1985e+07 2.2039e+07 2.31335e+07
          2.39647e+07 2.43159e+07 2.49193e+07 2.49851e+07 2.50513e+07 2.52277e+07 2.56349e+07 2.59153e+07 2.59919e+07 2.62326e+07 2.67974e+07 2.75446e+07
          2.25094e+07 2.25733e+07 2.36126e+07 2.44604e+07 2.50513e+07 2.54214e+07 2.55439e+07 2.56676e+07 2.58165e+07 2.60827e+07 2.62233e+07 2.6252e+07
          2.65015e+07 2.72246e+07 2.8106e+07 2.31448e+07 2.32506e+07 2.39228e+07 2.46306e+07 2.55836e+07 2.5859e+07 2.61252e+07 2.63794e+07 2.64518e+07
          2.65407e+07 2.65971e+07 2.66241e+07 2.68863e+07 2.76525e+07 2.84387e+07 2.40734e+07 2.42129e+07 2.4508e+07 2.50514e+07 2.59505e+07 2.61789e+07
          2.65942e+07 2.69601e+07 2.70143e+07 2.69911e+07 2.69787e+07 2.70141e+07 2.72335e+07 2.80032e+07 2.86852e+07 2.47342e+07 2.4813e+07 2.4971e+07
          2.53111e+07 2.63881e+07 2.64975e+07 2.7065e+07 2.75199e+07 2.75401e+07 2.74271e+07 2.73777e+07 2.73955e+07 2.76112e+07 2.83573e+07 2.94131e+07
          2.5207e+07 2.52753e+07 2.54107e+07 2.57655e+07 2.69287e+07 2.70446e+07 2.76444e+07 2.81614e+07 2.8252e+07 2.80844e+07 2.7883e+07 2.82899e+07
          2.89097e+07 2.9907e+07 3.01413e+07 2.62351e+07 2.62789e+07 2.61645e+07 2.65336e+07 2.78264e+07 2.79393e+07 2.84294e+07 2.88123e+07 2.88804e+07
          2.89362e+07 2.89519e+07 2.94896e+07 3.02315e+07 3.08058e+07 3.05742e+07 2.70548e+07 2.70538e+07 2.7111e+07 2.81829e+07 2.87112e+07 2.87761e+07
          2.9098e+07 2.93306e+07 2.93823e+07 2.94621e+07 2.9616e+07 3.04316e+07 3.10677e+07 3.12492e+07 3.10921e+07 2.77738e+07 2.77973e+07 2.79302e+07
          2.89795e+07 2.92298e+07 2.92853e+07 2.95133e+07 2.96625e+07 2.97126e+07 2.97888e+07 3.00953e+07 3.08647e+07 3.1437e+07 3.17567e+07 3.15811e+07
          2.85059e+07 2.85544e+07 2.87573e+07 2.95026e+07 2.96464e+07 2.9685e+07 2.98008e+07 2.99029e+07 2.99514e+07 3.00157e+07 3.04256e+07 3.13384e+07
          3.19518e+07 3.2262e+07 3.20293e+07 2.9094e+07 2.91531e+07 2.95125e+07 2.98046e+07 2.99332e+07 2.99773e+07 3.00678e+07 3.01442e+07 3.01948e+07
          3.02532e+07 3.07574e+07 3.17206e+07 3.23463e+07 3.2599e+07 3.24762e+07 2.94093e+07 2.94755e+07 2.96945e+07 3.00164e+07 3.01832e+07 3.02307e+07
          3.03104e+07 3.0378e+07 3.04243e+07 3.04805e+07 3.10346e+07 3.20982e+07 3.27384e+07 3.29263e+07 3.30957e+07 2.96616e+07 2.97203e+07 2.99187e+07
          3.02387e+07 3.04024e+07 3.04506e+07 3.05281e+07 3.05923e+07 3.0639e+07 3.07017e+07 3.12503e+07 3.24219e+07 3.31251e+07 3.32715e+07 3.36852e+07
          2.98733e+07 2.994e+07 3.00982e+07 3.03943e+07 3.05978e+07 3.06511e+07 3.0735e+07 3.08034e+07 3.08666e+07 3.09466e+07 3.17228e+07 3.29754e+07
          3.34837e+07 3.36387e+07 3.41451e+07 3.0076e+07 3.01453e+07 3.02863e+07 3.05759e+07 3.07834e+07 3.08423e+07 3.09403e+07 3.10193e+07 3.11021e+07
          3.11946e+07 3.22425e+07 3.35434e+07 3.38554e+07 3.4045e+07 3.45932e+07 3.02605e+07 3.03238e+07 3.04939e+07 3.07995e+07 3.09691e+07 3.10372e+07
          3.11532e+07 3.12454e+07 3.13531e+07 3.14693e+07 3.26829e+07 3.40118e+07 3.42787e+07 3.44916e+07 3.49146e+07 3.04289e+07 3.04891e+07 3.06383e+07
          3.09449e+07 3.11629e+07 3.12328e+07 3.13638e+07 3.14716e+07 3.16039e+07 3.17614e+07 3.31693e+07 3.44191e+07 3.47154e+07 3.49077e+07 3.51987e+07
        </DataArray>
        <DataArray type="Float32" Name="velocity[0]" NumberOfComponents="1" format="ascii">
          3.04204e-11 2.90201e-08 2.78937e-10 2.67793e-09 -1.40595e-10 -1.19656e-09 7.65556e-11 1.61514e-09 2.43702e-09 -3.69487e-10 -2.03189e-09 -2.9866e-09
          -2.1065e-09 -6.25955e-10 -2.77251e-09 -1.19021e-09 8.39796e-08 6.0604e-10 1.31751e-09 3.3876e-10 2.27457e-09 9.53813e-09 6.86565e-09 5.51789e-09
          -2.35179e-09 -4.24443e-09 -1.2605e-08 -7.81387e-09 -1.99119e-09 -7.34956e-09 -9.36167e-09 1.27366e-07 1.23306e-09 2.86176e-08 8.88424e-10 6.45802e-09
          1.76664e-08 1.41017e-08 3.70109e-09 -6.23114e-09 -5.20776e-09 -3.16538e-08 -1.10049e-08 -4.18011e-09 -1.09737e-08 -2.25378e-08 1.58562e-07 6.38913e-09
          1.07101e-07 -3.87236e-10 -2.69741e-09 5.83465e-09 9.64717e-09 -3.4495e-09 -1.43127e-08 -6.99888e-09 -5.59667e-08 -7.83657e-09 -5.94873e-09 -1.4873e-08
          -9.545e-08 -2.90665e-08 -1.78962e-10 -6.17898e-08 -5.82602e-09 -3.21675e-08 -3.91517e-08 -4.02954e-08 -1.01679e-08 -1.56598e-08 -1.00133e-08 -9.55284e-08
          -3.99173e-09 -5.41663e-09 -1.82172e-08 -1.71114e-07 -2.09461e-07 -6.93784e-09 -2.05422e-07 -1.81343e-08 -9.95525e-08 -6.8567e-08 -1.04909e-07 -1.12295e-08
          -8.04641e-09 -1.48278e-08 -1.37552e-07 -2.37932e-09 -4.30909e-09 -2.04051e-08 -1.72698e-07 -1.82994e-07 -2.59538e-09 -9.19942e-08 -2.55368e-08 -1.69685e-07
          -5.60139e-08 -1.65725e-07 -9.36291e-09 -3.8076e-09 -1.79192e-08 -1.63221e-07 -1.99434e-09 -4.17866e-09 -2.1885e-08 -1.5733e-07 -1.69173e-07 -2.87249e-09
          -3.20951e-08 -2.33496e-08 -2.07106e-07 -3.352e-08 -2.42762e-07 -7.44699e-09 -2.78579e-09 -1.96473e-08 -1.77529e-07 -1.61308e-09 -4.21443e-09 -2.35571e-08
          -1.40832e-07 -1.52732e-07 -2.70812e-09 -6.82463e-09 -1.87385e-08 -2.26973e-07 -1.25568e-08 -3.13618e-07 -5.75419e-09 -3.01656e-09 -3.20393e-08 -1.67555e-07
          -1.53048e-09 -3.73984e-09 -2.57853e-08 -1.11746e-07 -1.37781e-07 -8.71893e-09 -1.49899e-09 -1.34775e-08 -2.30761e-07 -4.19087e-09 -3.81672e-07 -5.3483e-09
          -3.57722e-09 -5.39035e-08 -1.37845e-07 -2.34599e-09 -3.08446e-09 -2.80168e-08 -7.92591e-08 -1.2443e-07 -1.73118e-08 -1.57419e-09 -1.03833e-08 -2.33643e-07
          -1.412e-09 -4.39405e-07 -8.5519e-09 -5.00699e-09 -6.91467e-08 -1.04938e-07 -5.25046e-09 -3.33719e-09 -3.00258e-08 -5.94451e-08 -1.0946e-07 -2.41626e-08
          -1.04022e-09 -1.0545e-08 -2.38999e-07 -1.17102e-09 -4.86781e-07 -1.86332e-08 -5.57375e-09 -7.54495e-08 -5.68019e-08 -1.36064e-08 -7.08358e-09 -3.15278e-08
          -4.50389e-08 -9.18362e-08 -3.24695e-08 -3.58817e-09 -1.40561e-08 -2.2498e-07 -1.70645e-09 -5.17139e-07 -4.75783e-08 -7.56143e-09 -5.55444e-08 -1.77366e-08
          -2.82414e-08 -1.44452e-08 -3.21694e-08 -3.90514e-08 -8.54519e-08 -2.86016e-08 -5.3238e-09 -2.01886e-08 -2.08823e-07 -1.77333e-09 -4.99377e-07 -8.43109e-08
          -1.48809e-08 -2.49564e-08 -7.29016e-09 -3.42958e-08 -2.62866e-08 -3.08372e-08 -4.63875e-08 -7.90773e-08 -1.69028e-08 -3.97265e-09 -2.69566e-08 -2.07369e-07
          -1.2694e-09 -4.57664e-07 -1.02479e-07 -2.36281e-08 -1.48261e-08 -3.83011e-09 -3.13854e-08 -4.10773e-08 -2.74906e-08 -5.67222e-08 -6.12796e-08 -1.04051e-08
          -3.43722e-09 -3.30414e-08 -2.05061e-07 -1.58955e-09 -3.90301e-07 -1.0737e-07 -3.263e-08 -8.74675e-09 -5.06758e-09 -3.52631e-08 -6.04547e-08 -2.3092e-08
          -6.05467e-08 -4.68106e-08 -6.20777e-09 -4.77449e-09 -4.73437e-08 -1.80201e-07 -3.06397e-09 -3.08803e-07 -1.08127e-07 -5.05844e-08 -3.59074e-09 -4.96072e-09
          -2.88815e-08 -8.97793e-08 -1.83184e-08 -5.95494e-08 -3.69181e-08 -2.46701e-09 -3.50265e-09 -7.07803e-08 -1.30716e-07 -4.68631e-09 -2.34862e-07 -1.16279e-07
          -7.63242e-08 -2.53912e-09 -3.34636e-09 -1.8753e-08 -1.17398e-07 -1.42907e-08 -5.37659e-08 -2.65089e-08 -1.35865e-09 -1.32483e-09 -8.80081e-08 -8.35591e-08
          -4.94339e-09 -1.66983e-07 -1.15825e-07 -1.19414e-07 -1.47495e-09 -2.75553e-09 -2.45389e-08 -1.34251e-07 -1.25133e-08 -4.46745e-08 -1.78977e-08 -1.42752e-09
          -6.15023e-10 -9.41798e-08 -4.77473e-08 -4.13762e-09 -1.2207e-07 -7.47391e-08 -2.06225e-07 -2.57316e-09 -3.92251e-09 -3.6477e-08 -1.42449e-07 -1.34761e-08
          -3.41784e-08 -1.20632e-08 -1.30097e-09 -1.61355e-10 -8.78904e-08 -2.50741e-08 -3.55687e-09 -9.59486e-08 -3.12063e-08 -2.85571e-07 -4.03525e-09 -7.22862e-09
          -4.43546e-08 -1.48938e-07 -1.54951e-08 -2.15119e-08 -6.159e-09 -2.05359e-09 -7.9532e-10 -6.51083e-08 -1.70949e-08 -3.47542e-09 -9.02903e-08 -1.68988e-08
          -3.01558e-07 -3.67857e-09 -1.38743e-08 -4.85605e-08 -1.5553e-07 -1.92394e-08 -1.0047e-08 -2.46485e-09 -9.26259e-10 -5.26589e-10 -3.2537e-08 -1.27657e-08
          -2.84884e-09 -9.50123e-08 -1.35978e-08 -2.59615e-07 -5.10176e-09 -2.39142e-08 -6.37461e-08 -1.62108e-07 -2.51323e-08 -2.6627e-09 -5.55548e-10 2.0327e-10
          7.44447e-11 -7.67541e-09 -4.8715e-09 -1.04203e-09 -4.83655e-08 -6.32948e-09 -1.12199e-07 -3.36577e-09 -1.45077e-08 -3.80818e-08 -8.33326e-08 -1.41139e-08
        </DataArray>
        <DataArray type="Float32" Name="velocity[1]" NumberOfComponents="1" format="ascii">
          -4.72769e-27 4.64744e-24 8.66434e-26 4.16182e-25 2.185e-26 0 -1.18976e-26 -2.29258e-25 2.27291e-26 5.82943e-24 -3.7463e-24 2.20298e-26
          2.42283e-24 -9.53782e-25 4.31038e-25 1.94428e-25 3.90649e-24 8.26404e-26 -6.27607e-25 -1.62919e-25 7.35216e-24 1.37579e-24 4.81247e-25 -7.01576e-24
          -1.01045e-25 0 -1.90665e-26 2.36624e-26 -8.35049e-27 2.80448e-25 1.07551e-24 -6.16536e-24 -1.37076e-24 4.87036e-24 -1.76798e-25 0
          1.65434e-25 -5.87513e-25 -3.82414e-25 0 7.28212e-24 -1.16285e-23 0 1.13056e-24 -2.825e-25 1.9882e-24 1.05305e-23 -1.3508e-24
          -1.01252e-23 2.61224e-25 9.40212e-24 -2.29466e-23 2.58419e-23 -4.25919e-24 1.13802e-24 3.76722e-24 -4.75486e-24 3.01503e-24 -1.29219e-24 9.69476e-25
          -1.14998e-25 -6.25928e-23 5.41504e-24 1.04858e-23 -3.65401e-25 -3.31273e-24 3.8095e-26 -1.11419e-25 -3.81182e-25 -7.10502e-24 4.60055e-24 -8.60548e-24
          4.71192e-28 1.32426e-25 -1.51384e-24 -1.46447e-25 6.522e-24 -4.96813e-25 2.34483e-24 1.64279e-25 -7.1792e-24 0 -4.90454e-26 2.46003e-25
          5.30839e-25 -4.38276e-25 6.74956e-24 -1.31563e-24 7.80158e-25 1.51412e-24 -9.73433e-25 1.08973e-24 0 7.04747e-24 -3.19768e-25 -9.99292e-24
          1.39585e-25 1.7936e-26 -2.48159e-24 -3.52721e-28 7.46988e-28 6.18987e-28 2.15719e-26 2.28997e-28 -1.65735e-24 -2.01451e-25 1.24159e-23 1.26491e-24
          5.69433e-24 1.60298e-25 1.26901e-23 1.4075e-25 1.01432e-25 3.17784e-25 -1.0124e-26 -3.09261e-24 -1.31954e-23 3.23308e-28 -3.32097e-25 1.91722e-24
          -1.52951e-24 -8.75794e-24 -4.23441e-26 -1.37996e-24 -5.4028e-25 3.04964e-24 0 0 -5.94992e-26 -7.46819e-28 5.52624e-25 4.03202e-24
          6.58065e-28 6.0196e-26 1.62826e-28 -1.02789e-23 1.40251e-24 1.59914e-24 8.84953e-26 -2.53344e-24 3.23773e-24 -6.02907e-24 5.6169e-24 1.41134e-25
          -6.16912e-26 -9.6167e-26 3.51323e-24 -7.62653e-25 0 -2.09012e-24 3.72739e-24 1.86625e-25 3.39507e-25 -1.97256e-25 2.24709e-24 -1.07185e-27
          -3.85003e-24 6.7135e-24 4.53616e-25 1.59239e-25 -3.53561e-25 7.98067e-24 1.67951e-24 -2.7661e-25 1.38305e-25 -4.00845e-24 2.7203e-24 -7.35974e-25
          -1.444e-25 -1.31513e-24 -1.85934e-23 3.08169e-26 4.01034e-24 -3.77238e-24 7.21582e-26 1.62905e-24 2.92425e-24 -1.72627e-24 9.90619e-25 -9.48832e-26
          2.9895e-24 7.8527e-24 0 -3.24534e-25 3.78024e-25 2.22053e-24 5.42012e-26 7.13802e-25 -3.38748e-24 1.6182e-27 -2.61558e-24 -8.2669e-25
          1.36847e-24 -8.00692e-25 -2.56088e-28 8.67864e-26 1.01159e-27 8.50762e-25 1.09525e-25 2.19965e-27 1.53916e-23 -4.064e-26 -3.46964e-24 5.61939e-24
          -3.44101e-25 2.61573e-24 2.19431e-24 -4.38562e-24 1.12999e-28 -2.29032e-24 -3.07777e-24 -5.43353e-24 1.98712e-29 3.86293e-25 4.74849e-25 -2.0105e-28
          -3.63164e-26 -7.43949e-24 1.96821e-24 0 0 3.06287e-25 3.63637e-24 -4.83988e-25 4.27259e-24 0 1.34444e-24 0
          -3.0308e-25 4.72201e-25 -2.11136e-28 8.60724e-26 -7.45712e-24 4.76517e-28 3.00412e-28 1.78542e-28 3.92103e-24 -1.88765e-28 -1.16015e-24 -1.98174e-24
          5.50279e-29 9.04318e-25 8.73054e-28 -1.36817e-25 1.75253e-24 -9.53078e-24 0 -9.88196e-24 0 -5.69923e-29 2.88153e-24 -3.56938e-24
          -1.61884e-24 1.92628e-28 1.24009e-24 0 3.18536e-24 0 4.39225e-25 1.62201e-24 4.55462e-24 1.08143e-25 -6.28274e-24 -5.34431e-24
          -2.0064e-24 1.71164e-25 4.93582e-26 6.20346e-29 -1.64381e-24 -9.80854e-25 3.82681e-24 -1.92353e-24 2.10331e-24 -1.7257e-24 7.87516e-25 8.03247e-24
          -6.81918e-26 -4.26617e-24 9.73836e-24 5.12118e-24 -3.07992e-24 6.72036e-26 8.54494e-25 -3.56804e-28 9.63865e-25 2.96923e-28 -3.46334e-24 7.5023e-25
          -1.58427e-24 3.43788e-25 -2.48834e-24 -1.13179e-25 -5.42695e-24 -4.91156e-24 8.80278e-24 2.50531e-25 3.29611e-24 1.00082e-24 -3.33513e-25 -7.9725e-25
          -9.20547e-25 5.5386e-25 0 -3.45202e-26 -1.14958e-24 4.06773e-24 -7.15171e-24 7.15385e-24 -5.27444e-24 9.41618e-28 0 0
          2.23534e-25 -5.97092e-28 1.27765e-24 -1.04799e-24 -1.10205e-24 1.01656e-24 -1.7083e-24 -8.48761e-25 -1.22606e-24 1.95885e-26 4.66576e-25 -3.43981e-24
          1.24645e-23 -2.38068e-25 -5.99822e-24 4.29822e-25 8.70331e-25 -3.08007e-29 -7.33365e-25 -4.60619e-28 -5.04621e-28 1.03392e-25 -2.67155e-24 4.7054e-25
          -1.18857e-25 9.39055e-24 -3.90891e-24 0 -2.53287e-25 -7.92435e-25 6.10787e-24 -7.08965e-25 0 -4.14275e-25 -3.96945e-28 -3.38194e-25
          5.73705e-25 -1.19218e-24 -1.98039e-24 -3.25768e-25 -2.56341e-24 9.83675e-25 -2.72197e-23 0 2.72157e-23 -1.995e-23 1.64744e-23 4.14177e-25
        </DataArray>
        <DataArray type="Float32" Name="velocity[2]" NumberOfComponents="1" format="ascii">
          1.58802e-11 3.73144e-09 -2.71926e-09 -2.36815e-09 -2.92611e-09 -3.00805e-09 -2.71088e-09 -2.47541e-09 -2.50727e-09 -3.11379e-09 -3.23715e-09 -3.07384e-09
          -2.5767e-09 -2.05971e-09 -1.41272e-09 -1.14641e-10 1.3742e-08 -2.17439e-09 -1.77331e-09 -1.7224e-09 -1.59894e-09 -7.71332e-10 -1.58146e-09 -1.94312e-09
          -3.28395e-09 -3.51519e-09 -4.55919e-09 -3.05888e-09 -1.66768e-09 -1.89713e-09 -1.17444e-09 2.25529e-08 -5.62753e-10 2.72262e-09 -3.65866e-09 -2.60555e-09
          -5.55451e-10 -1.23662e-09 -3.00578e-09 -4.49233e-09 -4.13933e-09 -7.98389e-09 -3.61184e-09 -2.19101e-09 -2.54124e-09 -3.53758e-09 2.81482e-08 2.85796e-10
          1.53684e-08 -5.79484e-09 -5.68269e-09 -3.47647e-09 -2.29741e-09 -4.0949e-09 -5.46706e-09 -3.85327e-09 -1.17026e-08 -2.68956e-09 -2.48777e-09 -3.31499e-09
          -1.23379e-08 4.66426e-10 -8.53838e-10 -1.81112e-08 -1.1328e-08 -1.47017e-08 -1.40264e-08 -1.21678e-08 -5.58477e-09 -6.58005e-09 -5.62456e-09 -1.89203e-08
          -1.18953e-09 -1.65543e-09 -3.63346e-09 -2.95098e-08 -3.66042e-08 -2.21322e-09 -4.10585e-08 -1.10679e-08 -2.27727e-08 -1.52868e-08 -2.12233e-08 -4.16653e-09
          -3.81838e-09 -4.97273e-09 -2.55744e-08 -9.13469e-10 -1.33192e-09 -3.90562e-09 -3.087e-08 -3.33009e-08 -1.62706e-09 -1.92729e-08 -9.60699e-09 -3.40739e-08
          -1.31946e-08 -3.17532e-08 -3.27727e-09 -2.45013e-09 -4.96468e-09 -2.98902e-08 -7.72929e-10 -1.12808e-09 -4.04429e-09 -2.81858e-08 -3.10455e-08 -1.98342e-09
          -7.95842e-09 -7.44031e-09 -3.93816e-08 -8.59822e-09 -4.48958e-08 -2.44217e-09 -1.67899e-09 -4.55829e-09 -3.2127e-08 -9.62262e-10 -1.47121e-09 -4.52557e-09
          -2.53131e-08 -2.8209e-08 -2.04995e-09 -2.98757e-09 -5.50889e-09 -4.21191e-08 -4.19196e-09 -5.65756e-08 -1.486e-09 -1.0386e-09 -5.45597e-09 -2.94324e-08
          -9.11377e-10 -1.33602e-09 -4.91645e-09 -2.09874e-08 -2.70946e-08 -3.94556e-09 -1.91251e-09 -4.00235e-09 -4.2532e-08 -2.74512e-09 -6.84068e-08 -1.06888e-09
          -7.25041e-10 -8.89199e-09 -2.40065e-08 -1.0929e-09 -1.24364e-09 -5.31289e-09 -1.47222e-08 -2.36986e-08 -4.83765e-09 -1.87399e-09 -3.52683e-09 -4.27086e-08
          -1.53366e-09 -7.82026e-08 -1.47734e-09 -6.35718e-10 -1.16308e-08 -1.86382e-08 -1.86159e-09 -1.26875e-09 -5.59119e-09 -1.09838e-08 -2.07423e-08 -5.73178e-09
          -1.22388e-09 -2.81937e-09 -4.30337e-08 -1.07951e-09 -8.60157e-08 -2.34919e-09 3.63402e-10 -1.18513e-08 -1.03559e-08 -4.26869e-09 -2.19304e-09 -5.76291e-09
          -8.37755e-09 -1.75214e-08 -7.19255e-09 -1.67863e-09 -3.29165e-09 -4.1023e-08 -2.3106e-09 -9.30674e-08 -8.83824e-09 -3.76898e-10 -1.01261e-08 -5.27108e-09
          -6.96197e-09 -3.25222e-09 -5.67863e-09 -6.84739e-09 -1.48515e-08 -5.34049e-09 -1.90492e-09 -4.34561e-09 -3.74915e-08 -1.08325e-09 -8.94135e-08 -1.59367e-08
          -2.60563e-09 -4.73891e-09 -2.37694e-09 -7.52257e-09 -5.01047e-09 -4.98336e-09 -7.72776e-09 -1.34973e-08 -3.35425e-09 -1.48766e-09 -5.42809e-09 -3.70589e-08
          -7.03843e-10 -8.17045e-08 -1.93965e-08 -5.14371e-09 -3.52714e-09 -1.6854e-09 -6.56164e-09 -7.09978e-09 -4.18551e-09 -9.76476e-09 -1.07636e-08 -2.42527e-09
          -1.37372e-09 -6.40974e-09 -3.67083e-08 -9.41936e-10 -7.07496e-08 -2.20396e-08 -8.5563e-09 -4.43485e-09 -4.00003e-09 -8.97257e-09 -1.10969e-08 -3.26673e-09
          -1.06585e-08 -8.50949e-09 -1.80507e-09 -1.67321e-09 -8.53517e-09 -3.23947e-08 -2.16838e-09 -5.69497e-08 -2.25118e-08 -1.19101e-08 -3.14531e-09 -3.50598e-09
          -8.50576e-09 -1.70978e-08 -2.44313e-09 -1.05849e-08 -6.88248e-09 -1.17214e-09 -1.62308e-09 -1.29409e-08 -2.41334e-08 -3.17636e-09 -4.48082e-08 -2.44414e-08
          -1.63372e-08 -2.84492e-09 -3.0317e-09 -5.73878e-09 -2.13511e-08 -1.9635e-09 -9.78028e-09 -5.59308e-09 -1.41269e-09 -1.34437e-09 -1.63613e-08 -1.62316e-08
          -3.30585e-09 -3.2623e-08 -2.49044e-08 -2.49e-08 -2.92884e-09 -3.21313e-09 -6.71364e-09 -2.46463e-08 -2.16978e-09 -8.1811e-09 -3.87902e-09 -1.14713e-09
          -1.09684e-09 -1.75708e-08 -1.00713e-08 -3.13816e-09 -2.4409e-08 -1.84242e-08 -4.12397e-08 -2.96146e-09 -3.00133e-09 -8.21647e-09 -2.61531e-08 -2.73346e-09
          -6.42185e-09 -3.09558e-09 -1.32902e-09 -1.06981e-09 -1.69229e-08 -6.55267e-09 -3.07611e-09 -1.96049e-08 -9.13674e-09 -5.3798e-08 -3.25456e-09 -3.72468e-09
          -1.00729e-08 -2.76562e-08 -3.04788e-09 -4.24298e-09 -2.10265e-09 -1.47836e-09 -1.21886e-09 -1.336e-08 -5.77562e-09 -3.43173e-09 -1.86565e-08 -5.7772e-09
          -5.63829e-08 -4.13833e-09 -5.65274e-09 -1.12881e-08 -2.96279e-08 -4.32503e-09 -2.08657e-09 -1.13238e-09 -1.0447e-09 -1.12405e-09 -7.71938e-09 -5.29114e-09
          -3.70433e-09 -1.99306e-08 -5.58541e-09 -5.0431e-08 -6.85623e-09 -9.76368e-09 -1.56531e-08 -3.14093e-08 -5.4636e-09 -6.47233e-10 -4.81288e-10 -3.5807e-10
          -3.60006e-10 -2.13269e-09 -2.27543e-09 -1.8557e-09 -1.15182e-08 -5.77591e-09 -2.93103e-08 -1.25515e-08 -1.09907e-08 -1.25289e-08 -1.7472e-08 -2.93292e-09
        </DataArray>
        <DataArray type="Float32" Name="z[0]" NumberOfComponents="1" format="ascii">
          0.150578 0.150579 0.15058 0.150582 0.150582 0.150583 0.150584 0.150585 0.150585 0.150586 0.150587 0.150588
          0.150589 0.150591 0.150596 0.150581 0.150582 0.150583 0.150585 0.150586 0.150587 0.150587 0.150588 0.150588
          0.150589 0.15059 0.150591 0.150593 0.150595 0.150599 0.150584 0.150585 0.150587 0.150588 0.150589 0.15059
          0.15059 0.150591 0.150592 0.150593 0.150593 0.150595 0.150596 0.150598 0.150602 0.150588 0.150589 0.15059
          0.150591 0.150592 0.150593 0.150594 0.150594 0.150595 0.150596 0.150597 0.150598 0.150599 0.150601 0.150605
          0.150591 0.150592 0.150593 0.150594 0.150595 0.170485 0.178511 0.255011 0.150598 0.150599 0.1506 0.150601
          0.150602 0.150604 0.150609 0.150594 0.150595 0.150596 0.150599 0.223673 0.403439 0.395542 0.392779 0.150601