<?xml version="1.0"?>
<VTKFile type="UnstructuredGrid" version="0.1" byte_order="LittleEndian">
  <UnstructuredGrid>
    <Piece NumberOfCells="360" NumberOfPoints="800">
      <CellData Scalars="pressure[0]">
        <DataArray type="Float32" Name="pressure[0]" NumberOfComponents="1" format="ascii">
          2.13525e+07 2.13661e+07 2.22112e+07 2.30071e+07 2.33668e+07 2.37372e+07 2.38534e+07 2.38971e+07 2.3952e+07 2.40111e+07 2.41569e+07 2.43958e+07
          2.45751e+07 2.51056e+07 2.57675e+07 2.14453e+07 2.14918e+07 2.23901e+07 2.3181e+07 2.35495e+07 2.39164e+07 2.40012e+07 2.40356e+07 2.40911e+07
          2.41554e+07 2.43516e+07 2.45914e+07 2.4742e+07 2.52926e+07 2.59301e+07 2.15724e+07 2.16202e+07 2.25468e+07 2.33379e+07 2.36659e+07 2.40132e+07
          2.41144e+07 2.41619e+07 2.423e+07 2.43117e+07 2.45675e+07 2.48374e+07 2.49968e+07 2.55171e+07 2.61302e+07 2.1699e+07 2.17462e+07 2.23746e+07
          2.34772e+07 2.38131e+07 2.41608e+07 2.42542e+07 2.42966e+07 2.43882e+07 2.45008e+07 2.48329e+07 2.51654e+07 2.53294e+07 2.57829e+07 2.6374e+07
          2.18281e+07 2.18467e+07 1.98374e+07 2.35812e+07 2.40295e+07 2.44004e+07 2.44616e+07 2.44937e+07 2.46208e+07 2.48102e+07 2.51735e+07 2.54782e+07
          2.56501e+07 2.60807e+07 2.66145e+07 2.20426e+07 2.20853e+07 2.29431e+07 2.41256e+07 2.44281e+07 2.46716e+07 2.47134e+07 2.47462e+07 2.49059e+07
          2.52142e+07 2.55657e+07 2.57595e+07 2.59463e+07 2.63782e+07 2.68819e+07 2.23242e+07 2.23769e+07 2.36267e+07 2.45828e+07 2.4792e+07 2.49652e+07
          2.50075e+07 2.50425e+07 2.51949e+07 2.55904e+07 2.59167e+07 2.60088e+07 2.61885e+07 2.66982e+07 2.72466e+07 2.27321e+07 2.27898e+07 2.39791e+07
          2.49211e+07 2.5133e+07 2.52671e+07 2.53053e+07 2.5338e+07 2.55152e+07 2.58976e+07 2.61606e+07 2.6236e+07 2.64754e+07 2.70306e+07 2.77437e+07
          2.33084e+07 2.33753e+07 2.42908e+07 2.52004e+07 2.54645e+07 2.55722e+07 2.5629e+07 2.56846e+07 2.58886e+07 2.62344e+07 2.64128e+07 2.64565e+07
          2.66997e+07 2.74099e+07 2.8242e+07 2.39041e+07 2.40056e+07 2.45147e+07 2.52558e+07 2.5747e+07 2.58408e+07 2.59591e+07 2.60757e+07 2.62633e+07
          2.65602e+07 2.67112e+07 2.67547e+07 2.7019e+07 2.77988e+07 2.85473e+07 2.46122e+07 2.47267e+07 2.50338e+07 2.55682e+07 2.59832e+07 2.60543e+07
          2.62349e+07 2.64104e+07 2.65766e+07 2.68425e+07 2.70153e+07 2.70749e+07 2.73181e+07 2.8142e+07 2.8778e+07 2.53566e+07 2.54318e+07 2.55694e+07
          2.5917e+07 2.6214e+07 2.62624e+07 2.65067e+07 2.67412e+07 2.68736e+07 2.71134e+07 2.73179e+07 2.74148e+07 2.77035e+07 2.85182e+07 2.90242e+07
          2.59077e+07 2.59586e+07 2.60077e+07 2.6285e+07 2.65121e+07 2.6558e+07 2.68158e+07 2.70765e+07 2.72034e+07 2.74238e+07 2.76583e+07 2.78938e+07
          2.8245e+07 2.89286e+07 2.92757e+07 2.63387e+07 2.6388e+07 2.64409e+07 2.67356e+07 2.69371e+07 2.69802e+07 2.71219e+07 2.76457e+07 2.76965e+07
          2.77959e+07 2.7928e+07 2.83359e+07 2.88634e+07 2.94479e+07 2.97025e+07 2.66876e+07 2.6724e+07 2.68935e+07 2.72072e+07 2.73477e+07 2.73873e+07
          2.75171e+07 2.80278e+07 2.8052e+07 2.81061e+07 2.82126e+07 2.86505e+07 3.00123e+07 3.01928e+07 3.02492e+07 2.70012e+07 2.70483e+07 2.72977e+07
          2.75807e+07 2.76503e+07 2.76942e+07 2.78573e+07 2.8439e+07 2.84922e+07 2.85785e+07 2.8899e+07 2.97943e+07 3.05236e+07 3.09287e+07 3.07975e+07
          2.73113e+07 2.73929e+07 2.76823e+07 2.80006e+07 2.83117e+07 2.83604e+07 2.85311e+07 2.86931e+07 2.87449e+07 2.88145e+07 2.93123e+07 3.04466e+07
          3.12199e+07 3.16075e+07 3.1317e+07 2.77662e+07 2.77966e+07 2.80065e+07 2.84719e+07 2.86676e+07 2.87139e+07 2.88412e+07 2.89517e+07 2.90065e+07
          2.90691e+07 2.97044e+07 3.09291e+07 3.17223e+07 3.20226e+07 3.18454e+07 2.80981e+07 2.816e+07 2.83745e+07 2.87601e+07 2.89626e+07 2.90115e+07
          2.91153e+07 2.92055e+07 2.92546e+07 2.93144e+07 3.0022e+07 3.13904e+07 3.22076e+07 3.2419e+07 3.26102e+07 2.83674e+07 2.84265e+07 2.8644e+07
          2.90186e+07 2.92087e+07 2.9258e+07 2.93546e+07 2.94362e+07 2.94857e+07 2.95543e+07 3.02592e+07 3.17776e+07 3.26812e+07 3.28383e+07 3.33408e+07
          2.85902e+07 2.86596e+07 2.88367e+07 2.91822e+07 2.94192e+07 2.94753e+07 2.95782e+07 2.96632e+07 2.97349e+07 2.98265e+07 3.08347e+07 3.24668e+07
          3.31162e+07 3.32861e+07 3.39057e+07 2.88025e+07 2.88753e+07 2.90333e+07 2.93727e+07 2.96153e+07 2.96789e+07 2.97993e+07 2.98974e+07 2.9995e+07
          3.01035e+07 3.14754e+07 3.31784e+07 3.35703e+07 3.37865e+07 3.44565e+07 2.89927e+07 2.90584e+07 2.92529e+07 2.96136e+07 2.98111e+07 2.98868e+07
          3.00306e+07 3.01456e+07 3.02763e+07 3.04161e+07 3.20125e+07 3.37584e+07 3.40932e+07 3.43406e+07 3.48364e+07 2.91633e+07 2.92251e+07 2.93946e+07
          2.97588e+07 3.00174e+07 3.00953e+07 3.02587e+07 3.03941e+07 3.05573e+07 3.07521e+07 3.26108e+07 3.42549e+07 3.46302e+07 3.48512e+07 3.51658e+07
        </DataArray>
        <DataArray type="Float32" Name="pressure[1]" NumberOfComponents="1" format="ascii">
          2.13525e+07 2.13661e+07 2.22112e+07 2.30071e+07 2.33668e+07 2.37372e+07 2.38534e+07 2.38971e+07 2.3952e+07 2.40111e+07 2.41569e+07 2.43958e+07
          2.45751e+07 2.51056e+07 2.57675e+07 2.14453e+07 2.14918e+07 2.23901e+07 2.3181e+07 2.35495e+07 2.39164e+07 2.40012e+07 2.40356e+07 2.40911e+07
          2.41554e+07 2.43516e+07 2.45914e+07 2.4742e+07 2.52926e+07 2.59301e+07 2.15724e+07 2.16202e+07 2.25468e+07 2.33379e+07 2.36659e+07 2.40132e+07
          2.41144e+07 2.41619e+07 2.423e+07 2.43117e+07 2.45675e+07 2.48374e+07 2.49968e+07 2.55171e+07 2.61302e+07 2.1699e+07 2.17462e+07 2.23746e+07
          2.34772e+07 2.38131e+07 2.41608e+07 2.42542e+07 2.42966e+07 2.43882e+07 2.45008e+07 2.48329e+07 2.51654e+07 2.53294e+07 2.57829e+07 2.6374e+07
          2.18281e+07 2.18467e+07 1.98374e+07 2.35812e+07 2.40295e+07 2.44004e+07 2.44616e+07 2.44937e+07 2.46208e+07 2.48102e+07 2.51735e+07 2.54782e+07
          2.56501e+07 2.60807e+07 2.66145e+07 2.20426e+07 2.20853e+07 2.29431e+07 2.41256e+07 2.44281e+07 2.46716e+07 2.47134e+07 2.47462e+07 2.49059e+07
          2.52142e+07 2.55657e+07 2.57595e+07 2.59463e+07 2.63782e+07 2.68819e+07 2.23242e+07 2.23769e+07 2.36267e+07 2.45828e+07 2.4792e+07 2.49652e+07
          2.50075e+07 2.50425e+07 2.51949e+07 2.55904e+07 2.59167e+07 2.60088e+07 2.61885e+07 2.66982e+07 2.72466e+07 2.27321e+07 2.27898e+07 2.39791e+07
          2.49211e+07 2.5133e+07 2.52671e+07 2.53053e+07 2.5338e+07 2.55152e+07 2.58976e+07 2.61606e+07 2.6236e+07 2.64754e+07 2.70306e+07 2.77437e+07
          2.33084e+07 2.33753e+07 2.42908e+07 2.52004e+07 2.54645e+07 2.55722e+07 2.5629e+07 2.56846e+07 2.58886e+07 2.62344e+07 2.64128e+07 2.64565e+07
          2.66997e+07 2.74099e+07 2.8242e+07 2.39041e+07 2.40056e+07 2.45147e+07 2.52558e+07 2.5747e+07 2.58408e+07 2.59591e+07 2.60757e+07 2.62633e+07
          2.65602e+07 2.67112e+07 2.67547e+07 2.7019e+07 2.77988e+07 2.85473e+07 2.46122e+07 2.47267e+07 2.50338e+07 2.55682e+07 2.59832e+07 2.60543e+07
          2.62349e+07 2.64104e+07 2.65766e+07 2.68425e+07 2.70153e+07 2.70749e+07 2.73181e+07 2.8142e+07 2.8778e+07 2.53566e+07 2.54318e+07 2.55694e+07
          2.5917e+07 2.6214e+07 2.62624e+07 2.65067e+07 2.67412e+07 2.68736e+07 2.71134e+07 2.73179e+07 2.74148e+07 2.77035e+07 2.85182e+07 2.90242e+07
          2.59077e+07 2.59586e+07 2.60077e+07 2.6285e+07 2.65121e+07 2.6558e+07 2.68158e+07 2.70765e+07 2.72034e+07 2.74238e+07 2.76583e+07 2.78938e+07
          2.8245e+07 2.89286e+07 2.92757e+07 2.63387e+07 2.6388e+07 2.64409e+07 2.67356e+07 2.69371e+07 2.69802e+07 2.71219e+07 2.76457e+07 2.76965e+07
          2.77959e+07 2.7928e+07 2.83359e+07 2.88634e+07 2.94479e+07 2.97025e+07 2.66876e+07 2.6724e+07 2.68935e+07 2.72072e+07 2.73477e+07 2.73873e+07
          2.75171e+07 2.80278e+07 2.8052e+07 2.81061e+07 2.82126e+07 2.86505e+07 3.00123e+07 3.01928e+07 3.02492e+07 2.70012e+07 2.70483e+07 2.72977e+07
          2.75807e+07 2.76503e+07 2.76942e+07 2.78573e+07 2.8439e+07 2.84922e+07 2.85785e+07 2.8899e+07 2.97943e+07 3.05236e+07 3.09287e+07 3.07975e+07
          2.73113e+07 2.73929e+07 2.76823e+07 2.80006e+07 2.83117e+07 2.83604e+07 2.85311e+07 2.86931e+07 2.87449e+07 2.88145e+07 2.93123e+07 3.04466e+07
          3.12199e+07 3.16075e+07 3.1317e+07 2.77662e+07 2.77966e+07 2.80065e+07 2.84719e+07 2.86676e+07 2.87139e+07 2.88412e+07 2.89517e+07 2.90065e+07
          2.90691e+07 2.97044e+07 3.09291e+07 3.17223e+07 3.20226e+07 3.18454e+07 2.80981e+07 2.816e+07 2.83745e+07 2.87601e+07 2.89626e+07 2.90115e+07
          2.91153e+07 2.92055e+07 2.92546e+07 2.93144e+07 3.0022e+07 3.13904e+07 3.22076e+07 3.2419e+07 3.26102e+07 2.83674e+07 2.84265e+07 2.8644e+07
          2.90186e+07 2.92087e+07 2.9258e+07 2.93546e+07 2.94362e+07 2.94857e+07 2.95543e+07 3.02592e+07 3.17776e+07 3.26812e+07 3.28383e+07 3.33408e+07
          2.85902e+07 2.86596e+07 2.88367e+07 2.91822e+07 2.94192e+07 2.94753e+07 2.95782e+07 2.96632e+07 2.97349e+07 2.98265e+07 3.08347e+07 3.24668e+07
          3.31162e+07 3.32861e+07 3.39057e+07 2.88025e+07 2.88753e+07 2.90333e+07 2.93727e+07 2.96153e+07 2.96789e+07 2.97993e+07 2.98974e+07 2.9995e+07
          3.01035e+07 3.14754e+07 3.31784e+07 3.35703e+07 3.37865e+07 3.44565e+07 2.89927e+07 2.90584e+07 2.92529e+07 2.96136e+07 2.98111e+07 2.98868e+07
          3.00306e+07 3.01456e+07 3.02763e+07 3.04161e+07 3.20125e+07 3.37584e+07 3.40932e+07 3.43406e+07 3.48364e+07 2.91633e+07 2.92251e+07 2.93946e+07
          2.97588e+07 3.00174e+07 3.00953e+07 3.02587e+07 3.03941e+07 3.05573e+07 3.07521e+07 3.26108e+07 3.42549e+07 3.46302e+07 3.48512e+07 3.51658e+07
        </DataArray>
        <DataArray type="Float32" Name="pressure[2]" NumberOfComponents="1" format="ascii">
          2.13525e+07 2.13661e+07 2.22112e+07 2.30071e+07 2.33668e+07 2.37372e+07 2.38534e+07 2.38971e+07 2.3952e+07 2.40111e+07 2.41569e+07 2.43958e+07
          2.45751e+07 2.51056e+07 2.57675e+07 2.14453e+07 2.14918e+07 2.23901e+07 2.3181e+07 2.35495e+07 2.39164e+07 2.40012e+07 2.40356e+07 2.40911e+07
          2.41554e+07 2.43516e+07 2.45914e+07 2.4742e+07 2.52926e+07 2.59301e+07 2.15724e+07 2.16202e+07 2.25468e+07 2.33379e+07 2.36659e+07 2.40132e+07
          2.41144e+07 2.41619e+07 2.423e+07 2.43117e+07 2.45675e+07 2.48374e+07 2.49968e+07 2.55171e+07 2.61302e+07 2.1699e+07 2.17462e+07 2.23746e+07
          2.34772e+07 2.38131e+07 2.41608e+07 2.42542e+07 2.42966e+07 2.43882e+07 2.45008e+07 2.48329e+07 2.51654e+07 2.53294e+07 2.57829e+07 2.6374e+07
          2.18281e+07 2.18467e+07 1.98374e+07 2.35812e+07 2.40295e+07 2.44004e+07 2.44616e+07 2.44937e+07 2.46208e+07 2.48102e+07 2.51735e+07 2.54782e+07
          2.56501e+07 2.60807e+07 2.66145e+07 2.20426e+07 2.20853e+07 2.29431e+07 2.41256e+07 2.44281e+07 2.46716e+07 2.47134e+07 2.47462e+07 2.49059e+07
          2.52142e+07 2.55657e+07 2.57595e+07 2.59463e+07 2.63782e+07 2.68819e+07 2.23242e+07 2.23769e+07 2.36267e+07 2.45828e+07 2.4792e+07 2.49652e+07
          2.50075e+07 2.50425e+07 2.51949e+07 2.55904e+07 2.59167e+07 2.60088e+07 2.61885e+07 2.66982e+07 2.72466e+07 2.27321e+07 2.27898e+07 2.39791e+07
          2.49211e+07 2.5133e+07 2.52671e+07 2.53053e+07 2.5338e+07 2.55152e+07 2.58976e+07 2.61606e+07 2.6236e+07 2.64754e+07 2.70306e+07 2.77437e+07
          2.33084e+07 2.33753e+07 2.42908e+07 2.52004e+07 2.54645e+07 2.55722e+07 2.5629e+07 2.56846e+07 2.58886e+07 2.62344e+07 2.64128e+07 2.64565e+07
          2.66997e+07 2.74099e+07 2.8242e+07 2.39041e+07 2.40056e+07 2.45147e+07 2.52558e+07 2.5747e+07 2.58408e+07 2.59591e+07 2.60757e+07 2.62633e+07
          2.65602e+07 2.67112e+07 2.67547e+07 2.7019e+07 2.77988e+07 2.85473e+07 2.46122e+07 2.47267e+07 2.50338e+07 2.55682e+07 2.59832e+07 2.60543e+07
          2.62349e+07 2.64104e+07 2.65766e+07 2.68425e+07 2.70153e+07 2.70749e+07 2.73181e+07 2.8142e+07 2.8778e+07 2.53566e+07 2.54318e+07 2.55694e+07
          2.5917e+07 2.6214e+07 2.62624e+07 2.65067e+07 2.67412e+07 2.68736e+07 2.71134e+07 2.73179e+07 2.74148e+07 2.77035e+07 2.85182e+07 2.90242e+07
          2.59077e+07 2.59586e+07 2.60077e+07 2.6285e+07 2.65121e+07 2.6558e+07 2.68158e+07 2.70765e+07 2.72034e+07 2.74238e+07 2.76583e+07 2.78938e+07
          2.8245e+07 2.89286e+07 2.92757e+07 2.63387e+07 2.6388e+07 2.64409e+07 2.67356e+07 2.69371e+07 2.69802e+07 2.71219e+07 2.76457e+07 2.76965e+07
          2.77959e+07 2.7928e+07 2.83359e+07 2.88634e+07 2.94479e+07 2.97025e+07 2.66876e+07 2.6724e+07 2.68935e+07 2.72072e+07 2.73477e+07 2.73873e+07
          2.75171e+07 2.80278e+07 2.8052e+07 2.81061e+07 2.82126e+07 2.86505e+07 3.00123e+07 3.01928e+07 3.02492e+07 2.70012e+07 2.70483e+07 2.72977e+07
          2.75807e+07 2.76503e+07 2.76942e+07 2.78573e+07 2.8439e+07 2.84922e+07 2.85785e+07 2.8899e+07 2.97943e+07 3.05236e+07 3.09287e+07 3.07975e+07
          2.73113e+07 2.73929e+07 2.76823e+07 2.80006e+07 2.83117e+07 2.83604e+07 2.85311e+07 2.86931e+07 2.87449e+07 2.88145e+07 2.93123e+07 3.04466e+07
          3.12199e+07 3.16075e+07 3.1317e+07 2.77662e+07 2.77966e+07 2.80065e+07 2.84719e+07 2.86676e+07 2.87139e+07 2.88412e+07 2.89517e+07 2.90065e+07
          2.90691e+07 2.97044e+07 3.09291e+07 3.17223e+07 3.20226e+07 3.18454e+07 2.80981e+07 2.816e+07 2.83745e+07 2.87601e+07 2.89626e+07 2.90115e+07
          2.91153e+07 2.92055e+07 2.92546e+07 2.93144e+07 3.0022e+07 3.13904e+07 3.22076e+07 3.2419e+07 3.26102e+07 2.83674e+07 2.84265e+07 2.8644e+07
          2.90186e+07 2.92087e+07 2.9258e+07 2.93546e+07 2.94362e+07 2.94857e+07 2.95543e+07 3.02592e+07 3.17776e+07 3.26812e+07 3.28383e+07 3.33408e+07
          2.85902e+07 2.86596e+07 2.88367e+07 2.91822e+07 2.94192e+07 2.94753e+07 2.95782e+07 2.96632e+07 2.97349e+07 2.98265e+07 3.08347e+07 3.24668e+07
          3.31162e+07 3.32861e+07 3.39057e+07 2.88025e+07 2.88753e+07 2.90333e+07 2.93727e+07 2.96153e+07 2.96789e+07 2.97993e+07 2.98974e+07 2.9995e+07
          3.01035e+07 3.14754e+07 3.31784e+07 3.35703e+07 3.37865e+07 3.44565e+07 2.89927e+07 2.90584e+07 2.92529e+07 2.96136e+07 2.98111e+07 2.98868e+07
          3.00306e+07 3.01456e+07 3.02763e+07 3.04161e+07 3.20125e+07 3.37584e+07 3.40932e+07 3.43406e+07 3.48364e+07 2.91633e+07 2.92251e+07 2.93946e+07
          2.97588e+07 3.00174e+07 3.00953e+07 3.02587e+07 3.03941e+07 3.05573e+07 3.07521e+07 3.26108e+07 3.42549e+07 3.46302e+07 3.48512e+07 3.51658e+07
        </DataArray>
        <DataArray type="Float32" Name="velocity[0]" NumberOfComponents="1" format="ascii">
          -1.71471e-08 7.37135e-08 -4.6797e-10 -9.07635e-09 -4.5873e-10 -1.71671e-09 -1.29012e-09 5.99104e-10 9.6114e-10 -5.92575e-10 -1.63721e-09 -2.11269e-09
          -1.46273e-09 -5.01273e-10 -2.2335e-09 -2.94643e-08 1.81909e-07 -5.87356e-10 -3.30496e-08 -1.71791e-10 9.08443e-10 5.05219e-09 3.52016e-09 1.73883e-09
          -2.75562e-09 -3.35134e-09 -8.95208e-09 -5.51635e-09 -1.46409e-09 -5.91997e-09 -1.96723e-08 2.25081e-07 9.11575e-10 -1.54627e-08 1.55061e-10 2.10115e-09
          6.75943e-09 4.32953e-09 -1.17131e-09 -6.34537e-09 -3.83593e-09 -2.27213e-08 -7.98472e-09 -3.11254e-09 -8.88154e-09 -1.00456e-08 2.38244e-07 9.13795e-09
          7.39174e-08 -2.98301e-09 -1.81209e-08 -2.3899e-08 -1.7408e-08 -6.58601e-09 -1.24147e-08 -4.92618e-09 -3.8665e-08 -5.74034e-09 -4.59334e-09 -1.21539e-08
          -1.02643e-07 -2.78959e-08 -3.99788e-10 -1.85605e-07 -2.15535e-08 -8.82929e-08 -9.99534e-08 -9.2497e-08 -7.74931e-09 -1.20257e-08 -6.8507e-09 -6.35855e-08
          -2.81559e-09 -4.19031e-09 -1.5023e-08 -2.09873e-07 -2.68944e-07 -1.02216e-08 -3.45832e-07 -4.44029e-08 -2.60803e-07 -1.42195e-07 -2.28478e-07 -5.23735e-09
          -5.20215e-09 -9.80445e-09 -9.02451e-08 -1.60011e-09 -3.31458e-09 -1.69776e-08 -2.08308e-07 -2.27574e-07 -2.60773e-09 -1.09397e-07 -4.02862e-08 -4.46245e-07
          -1.18091e-07 -3.94464e-07 -4.09819e-09 -2.17991e-09 -1.16386e-08 -1.06759e-07 -1.40126e-09 -3.28244e-09 -1.8353e-08 -1.85819e-07 -2.01363e-07 -1.99065e-09
          -1.74564e-08 -2.4136e-08 -5.2104e-07 -7.29635e-08 -5.46544e-07 -3.63716e-09 -1.68034e-09 -1.28788e-08 -1.17277e-07 -1.16079e-09 -3.42961e-09 -1.99198e-08
          -1.6489e-07 -1.76136e-07 -1.90015e-09 -2.17722e-09 -1.64531e-08 -5.26611e-07 -2.86784e-08 -6.68715e-07 -2.86091e-09 -1.83214e-09 -2.14809e-08 -1.12369e-07
          -1.07231e-09 -3.16376e-09 -2.19872e-08 -1.31528e-07 -1.6087e-07 -7.93796e-09 -8.11538e-11 -1.20374e-08 -5.05255e-07 -9.26196e-09 -7.87588e-07 -2.34011e-09
          -1.82709e-09 -3.63982e-08 -9.58958e-08 -1.76051e-09 -2.80494e-09 -2.4056e-08 -9.37816e-08 -1.50669e-07 -1.9089e-08 -1.29419e-09 -1.13795e-08 -4.74904e-07
          -3.04507e-09 -8.8192e-07 -4.44167e-09 -2.22531e-09 -4.4858e-08 -8.11899e-08 -5.31676e-09 -3.56108e-09 -2.5911e-08 -7.27372e-08 -1.38748e-07 -2.62935e-08
          -1.05719e-09 -1.76842e-08 -4.48881e-07 -2.30138e-09 -8.57791e-07 -2.48663e-08 -4.54923e-09 -4.57465e-08 -6.6392e-08 -2.18564e-08 -7.3639e-09 -2.77804e-08
          -6.47728e-08 -1.35616e-07 -2.29364e-08 -2.01417e-09 -2.77532e-08 -3.96831e-07 -2.60176e-09 -5.87071e-07 -1.40765e-07 -1.18115e-08 -3.45054e-08 -3.66228e-08
          -5.23906e-08 -2.20145e-08 -3.0164e-08 -6.24627e-08 -1.40248e-07 -1.26716e-08 -3.96212e-09 -3.77813e-08 -3.49709e-07 -3.22999e-09 -2.96572e-07 -2.41777e-07
          -3.06932e-08 -2.29914e-08 -1.00226e-08 -5.42549e-08 -5.18815e-08 -3.167e-08 -6.82755e-08 -1.26821e-07 -6.58351e-09 -5.2143e-09 -5.15015e-08 -3.30952e-07
          -3.72121e-09 -3.33418e-07 -1.84719e-07 -4.07423e-08 -2.23255e-08 -8.77317e-09 -4.56078e-08 -7.48989e-08 -3.09669e-08 -7.51454e-08 -1.01793e-07 -5.40808e-09
          -1.01224e-08 -5.99787e-08 -3.03355e-07 -6.12139e-09 -4.22181e-07 -1.26174e-07 -4.00351e-08 -1.40743e-08 -1.17171e-08 -5.58372e-08 -9.44682e-08 -2.79371e-08
          -5.66873e-08 -9.88734e-08 -6.17874e-09 -1.35758e-08 -7.50877e-08 -2.58152e-07 -7.0879e-09 -3.66603e-07 -1.29272e-07 -6.00779e-08 -5.12309e-09 -7.57174e-09
          -4.31449e-08 -1.31477e-07 -2.313e-08 -5.1335e-08 -7.35143e-08 -6.09385e-09 -7.83509e-09 -1.07229e-07 -1.91284e-07 -6.49976e-09 -2.90075e-07 -1.44523e-07
          -9.51401e-08 -3.41988e-09 -4.74516e-09 -2.67978e-08 -1.67203e-07 -1.8541e-08 -6.13704e-08 -3.31857e-08 -4.59919e-09 -2.67966e-09 -1.29469e-07 -1.21845e-07
          -6.79249e-09 -2.13891e-07 -1.48216e-07 -1.53797e-07 -1.99864e-09 -3.8142e-09 -3.40867e-08 -1.8856e-07 -1.65422e-08 -5.3435e-08 -2.21908e-08 -2.40692e-09
          -1.06147e-09 -1.34932e-07 -6.82668e-08 -5.63217e-09 -1.58929e-07 -9.72967e-08 -2.70758e-07 -3.44399e-09 -5.32162e-09 -5.04516e-08 -1.98449e-07 -1.80521e-08
          -4.15417e-08 -1.4763e-08 -1.8158e-09 -3.12643e-10 -1.23772e-07 -3.50954e-08 -4.79141e-09 -1.26129e-07 -4.11057e-08 -3.77766e-07 -5.37575e-09 -9.74946e-09
          -6.14603e-08 -2.06165e-07 -2.09579e-08 -2.63073e-08 -7.57843e-09 -2.60193e-09 -1.03494e-09 -9.06031e-08 -2.35202e-08 -4.66622e-09 -1.19842e-07 -2.24109e-08
          -4.00236e-07 -4.92803e-09 -1.8839e-08 -6.71168e-08 -2.14228e-07 -2.61398e-08 -1.23429e-08 -3.05447e-09 -1.17018e-09 -6.87506e-10 -4.48333e-08 -1.73813e-08
          -3.82108e-09 -1.26585e-07 -1.80894e-08 -3.45221e-07 -6.8495e-09 -3.25287e-08 -8.72001e-08 -2.22269e-07 -3.42317e-08 -3.28124e-09 -6.92132e-10 2.38542e-10
          7.57002e-11 -1.04534e-08 -6.59869e-09 -1.39634e-09 -6.4477e-08 -8.427e-09 -1.49324e-07 -4.51609e-09 -1.97275e-08 -5.18509e-08 -1.13999e-07 -1.92348e-08
        </DataArray>
        <DataArray type="Float32" Name="velocity[1]" NumberOfComponents="1" format="ascii">
          2.66486e-24 1.1807e-23 2.43087e-25 -1.41057e-24 7.12921e-26 0 2.005e-25 -2.54087e-27 1.45387e-25 4.90465e-24 -3.32055e-24 1.04275e-25
          2.0472e-24 -7.74272e-25 3.46349e-25 -7.50622e-25 5.08362e-24 2.35102e-25 -2.31515e-24 -2.82279e-25 7.33796e-24 6.63572e-25 1.01752e-26 -6.8697e-24
          -2.9068e-25 0 -1.01663e-25 9.26417e-26 2.58804e-27 2.2581e-25 -7.71171e-25 -1.27757e-23 -2.33022e-24 5.04836e-24 -2.94992e-25 0
          7.53577e-25 1.4799e-25 -4.23758e-25 0 5.7698e-24 -8.90969e-24 0 9.40976e-25 -2.36035e-25 -1.29962e-24 1.69335e-23 -1.95216e-24
          -7.34083e-24 6.44521e-25 1.16902e-23 -1.85232e-23 2.55103e-23 -2.81177e-24 1.0413e-24 2.67483e-24 -3.65305e-24 2.60174e-24 -1.09973e-24 8.23142e-25
          -2.33321e-25 -8.41123e-23 7.72172e-24 1.46944e-23 -5.59591e-25 -8.66414e-24 1.76692e-25 -1.51294e-25 5.46888e-27 -4.60296e-24 3.14738e-24 -5.60181e-24
          -4.65616e-28 1.07724e-25 -1.25327e-24 -2.60475e-25 9.18883e-24 -8.8182e-25 1.20289e-23 2.39252e-25 -1.89554e-23 0 -8.10147e-26 1.51668e-25
          3.69665e-25 -2.68834e-25 4.40546e-24 -1.25599e-24 7.42647e-25 1.25158e-24 -1.52014e-24 2.2325e-24 0 1.28433e-23 -1.63628e-24 -3.1388e-23
          -2.10028e-27 -2.40606e-27 -2.02623e-24 8.66863e-28 -6.92949e-28 -8.90199e-28 3.39251e-26 -6.28192e-28 -1.38524e-24 -3.03591e-25 1.49006e-23 1.94442e-24
          3.63404e-24 -7.26683e-28 3.84478e-23 -1.17515e-27 -3.05655e-27 9.42988e-26 -2.2351e-26 -2.43631e-24 -8.49173e-24 -7.45264e-28 -3.2622e-25 1.62874e-24
          -1.81109e-24 -9.7968e-24 -7.44167e-26 -2.47235e-24 -4.10749e-25 4.68961e-24 0 0 -5.67501e-25 8.32489e-28 7.7249e-25 2.34731e-24
          -1.55785e-27 4.01828e-26 -6.24595e-28 -1.20381e-23 1.00191e-24 1.77118e-24 -2.2988e-25 -2.93436e-24 6.17633e-24 -1.16176e-23 9.93622e-24 7.55604e-25
          2.01883e-27 -7.16246e-25 2.30865e-24 -7.78112e-25 0 -1.78834e-24 4.20991e-24 8.94746e-26 7.48764e-25 -1.20704e-25 2.42674e-24 2.06733e-27
          -7.7725e-24 9.46318e-24 3.36774e-25 6.56817e-26 8.56886e-25 5.12648e-24 1.97424e-24 -2.53846e-25 1.26923e-25 -5.1323e-24 1.91289e-24 -3.72125e-25
          -1.37195e-26 -7.76322e-25 -3.38031e-23 3.70753e-26 -8.47393e-24 -8.15513e-26 -2.97361e-25 -2.90852e-24 4.49225e-24 -1.97655e-24 1.13116e-24 -1.64689e-25
          4.9335e-24 1.03037e-23 0 -1.42966e-25 7.5656e-25 5.945e-24 8.3135e-27 -3.35919e-23 -1.51728e-23 -8.85352e-28 -1.81743e-24 -1.23296e-24
          2.67523e-24 -8.03257e-25 5.25306e-28 -1.60883e-25 1.02765e-27 6.81691e-25 -3.18517e-25 -2.14117e-27 2.76908e-23 8.6939e-26 -1.15495e-23 2.43041e-23
          -8.66438e-24 1.8185e-24 6.25785e-24 -1.02202e-23 1.02293e-27 -2.47516e-24 -4.77254e-24 -8.68604e-24 -6.48863e-28 3.87764e-25 1.33136e-24 2.12356e-27
          -1.16863e-26 3.21049e-23 -6.58817e-24 0 0 3.24681e-25 5.26121e-24 -4.78201e-25 4.81252e-24 0 1.55395e-24 0
          -1.15055e-24 -1.49079e-26 1.93653e-27 3.84702e-25 -3.48261e-24 8.9357e-28 1.43557e-28 -1.02579e-27 5.11582e-24 -8.01258e-28 -1.62269e-24 -2.33789e-24
          6.51054e-28 -1.10117e-24 -4.76811e-28 1.9192e-25 2.36171e-24 -1.33451e-23 0 -1.34049e-23 0 1.01592e-27 3.60465e-24 -4.54374e-24
          -2.51898e-24 4.93509e-28 1.59076e-24 0 8.23312e-24 0 9.59927e-25 2.94933e-24 5.7664e-24 1.43767e-25 -6.73732e-24 -6.54397e-24
          -2.7647e-24 2.31714e-25 1.0373e-25 -1.4993e-28 -2.08824e-24 -1.29072e-24 4.52853e-24 -1.86882e-24 2.31576e-24 -2.14656e-24 8.22558e-25 1.18014e-23
          -9.81275e-26 -5.10222e-24 1.23205e-23 6.67052e-24 -4.00434e-24 9.29029e-26 1.1547e-24 -7.58285e-28 1.28013e-24 -2.21127e-28 -3.97162e-24 8.55679e-25
          -1.95413e-24 5.21828e-26 -3.65886e-24 -1.65064e-25 -6.88085e-24 -6.30553e-24 1.18304e-23 3.30257e-25 4.33454e-24 1.38821e-24 -4.91605e-25 -1.0349e-24
          -1.09572e-24 6.73057e-25 0 -3.61723e-26 -1.76015e-24 5.5878e-24 -9.82691e-24 9.82562e-24 -7.08466e-24 2.41963e-27 0 0
          3.22848e-25 -1.18043e-27 1.73174e-24 -1.27189e-24 -1.32823e-24 1.23405e-24 -2.08034e-24 -1.51601e-24 -1.67626e-24 2.91162e-26 6.80502e-25 -4.60789e-24
          1.65713e-23 -3.23581e-25 -7.9912e-24 5.55635e-25 1.19974e-24 -3.28363e-28 -8.98444e-25 1.33344e-28 1.82813e-28 1.30986e-25 -3.71806e-24 6.49706e-25
          -1.59824e-25 1.25386e-23 -5.2174e-24 0 -3.39213e-25 -1.07568e-24 8.0862e-24 -8.91117e-25 0 -5.09857e-25 1.10286e-28 -4.16837e-25
          7.10997e-25 -1.62486e-24 -2.61741e-24 -4.33311e-25 -3.42843e-24 1.30965e-24 -3.62319e-23 0 3.64026e-23 -2.69106e-23 2.23814e-23 5.64009e-25
        </DataArray>
        <DataArray type="Float32" Name="velocity[2]" NumberOfComponents="1" format="ascii">
          -1.81205e-09 1.18485e-08 -4.62878e-09 -5.43771e-09 -3.29614e-09 -3.29053e-09 -3.01119e-09 -2.61272e-09 -2.55085e-09 -2.76522e-09 -2.73121e-09 -2.49095e-09
          -2.06364e-09 -1.66454e-09 -1.13998e-09 -5.44799e-09 2.99361e-08 -3.77863e-09 -8.58514e-09 -1.95359e-09 -1.8945e-09 -1.48619e-09 -1.97686e-09 -2.27244e-09
          -2.89932e-09 -2.84854e-09 -3.45769e-09 -2.31654e-09 -1.30982e-09 -1.52987e-09 -3.73273e-09 3.87757e-08 -1.11439e-09 -5.52812e-09 -4.24082e-09 -3.61382e-09
          -2.40599e-09 -2.59248e-09 -3.29076e-09 -3.86782e-09 -3.23427e-09 -5.94849e-09 -2.80954e-09 -1.75586e-09 -2.07067e-09 -2.01755e-09 4.13226e-08 2.69188e-10
          8.45181e-09 -7.65444e-09 -9.25964e-09 -8.73994e-09 -6.35175e-09 -3.67788e-09 -4.29739e-09 -2.73653e-09 -8.22698e-09 -2.14893e-09 -2.03844e-09 -2.73241e-09
          -1.15152e-08 3.19192e-09 -1.3233e-09 -4.30147e-08 -1.78732e-08 -2.61604e-08 -2.42778e-08 -2.00751e-08 -3.68909e-09 -4.66719e-09 -3.85292e-09 -1.26966e-08
          -9.52657e-10 -1.36392e-09 -3.01933e-09 -3.62314e-08 -4.72538e-08 -3.48898e-09 -7.08127e-08 -2.48753e-08 -5.69464e-08 -3.06157e-08 -4.38693e-08 -2.38638e-09
          -2.53421e-09 -3.3322e-09 -1.68891e-08 -7.66485e-10 -1.12512e-09 -3.27859e-09 -3.73838e-08 -4.18955e-08 -2.66996e-09 -2.54338e-08 -1.77611e-08 -8.68242e-08
          -2.62774e-08 -7.31479e-08 -2.05856e-09 -1.75439e-09 -3.43953e-09 -1.97316e-08 -6.66269e-10 -9.58314e-10 -3.41345e-09 -3.33664e-08 -3.72899e-08 -2.61796e-09
          -5.83115e-09 -7.86167e-09 -9.53408e-08 -1.67227e-08 -9.92404e-08 -1.7333e-09 -1.4007e-09 -3.29851e-09 -2.14772e-08 -8.73079e-10 -1.30235e-09 -3.86094e-09
          -2.96228e-08 -3.25863e-08 -2.25535e-09 -2.4415e-09 -5.27809e-09 -9.55081e-08 -8.249e-09 -1.19999e-07 -1.17063e-09 -1.01619e-09 -4.00519e-09 -2.00072e-08
          -8.13589e-10 -1.20134e-09 -4.22e-09 -2.46639e-08 -3.14309e-08 -3.98055e-09 -1.91499e-09 -4.04255e-09 -9.19543e-08 -5.48061e-09 -1.4116e-07 -9.92501e-10
          -9.05425e-10 -6.53085e-09 -1.7086e-08 -9.99866e-10 -1.17692e-09 -4.59041e-09 -1.74554e-08 -2.86642e-08 -5.30334e-09 -1.76089e-09 -3.49309e-09 -8.57365e-08
          -3.12623e-09 -1.57315e-07 -1.64509e-09 -1.1077e-09 -8.54294e-09 -1.52307e-08 -1.98243e-09 -1.31462e-09 -4.84121e-09 -1.32714e-08 -2.56645e-08 -5.93551e-09
          -1.27613e-09 -3.92848e-09 -8.03304e-08 -2.22183e-09 -1.54521e-07 -8.00575e-09 -3.25014e-09 -1.04464e-08 -1.46355e-08 -6.435e-09 -2.4984e-09 -5.25184e-09
          -1.15063e-08 -2.39311e-08 -4.40746e-09 -1.1692e-09 -5.4012e-09 -7.20041e-08 -4.26887e-09 -1.13092e-07 -3.42992e-08 -5.48725e-09 -9.97728e-09 -1.22982e-08
          -1.51739e-08 -6.71704e-09 -5.75949e-09 -1.10809e-08 -2.47828e-08 -2.60206e-09 -1.40628e-09 -7.04164e-09 -6.21742e-08 -1.4896e-09 -5.51723e-08 -4.72898e-08
          -9.33048e-09 -7.45702e-09 -5.54642e-09 -1.47177e-08 -1.22949e-08 -5.64438e-09 -1.15824e-08 -2.22003e-08 -1.88494e-09 -1.76742e-09 -9.46068e-09 -5.87389e-08
          -1.49795e-09 -5.6671e-08 -3.11106e-08 -9.48686e-09 -6.394e-09 -3.74398e-09 -9.51532e-09 -1.3425e-08 -5.16702e-09 -1.32489e-08 -1.84457e-08 -1.91523e-09
          -2.47799e-09 -1.10396e-08 -5.47873e-08 -3.13639e-09 -7.7033e-08 -2.53214e-08 -9.9082e-09 -5.72569e-09 -5.91488e-09 -1.35563e-08 -1.76785e-08 -4.21009e-09
          -1.12276e-08 -1.95439e-08 -2.81129e-09 -4.14382e-09 -1.4241e-08 -4.69913e-08 -4.04129e-09 -6.83602e-08 -2.73228e-08 -1.43626e-08 -4.04485e-09 -4.68577e-09
          -1.21879e-08 -2.51278e-08 -3.19251e-09 -8.17673e-09 -1.28341e-08 -2.60746e-09 -3.17995e-09 -2.00213e-08 -3.57725e-08 -5.01538e-09 -5.61315e-08 -3.07895e-08
          -2.05275e-08 -3.68926e-09 -3.99001e-09 -7.90808e-09 -3.04362e-08 -2.62599e-09 -1.10256e-08 -6.65718e-09 -2.10197e-09 -1.88465e-09 -2.3991e-08 -2.3765e-08
          -4.89505e-09 -4.23053e-08 -3.22196e-08 -3.21884e-08 -3.82836e-09 -4.22614e-09 -9.10412e-09 -3.45259e-08 -2.8944e-09 -9.74335e-09 -4.71254e-09 -1.47936e-09
          -1.39158e-09 -2.50372e-08 -1.43718e-08 -4.44018e-09 -3.20758e-08 -2.4233e-08 -5.42104e-08 -3.89512e-09 -3.96531e-09 -1.12012e-08 -3.6374e-08 -3.70934e-09
          -7.79515e-09 -3.75961e-09 -1.64351e-09 -1.31727e-09 -2.36795e-08 -9.09549e-09 -4.20883e-09 -2.58971e-08 -1.21253e-08 -7.1189e-08 -4.2984e-09 -4.94122e-09
          -1.37813e-08 -3.81993e-08 -4.13845e-09 -5.18439e-09 -2.57005e-09 -1.81639e-09 -1.49662e-09 -1.84306e-08 -7.85754e-09 -4.61909e-09 -2.48067e-08 -7.69483e-09
          -7.48402e-08 -5.48691e-09 -7.54983e-09 -1.54179e-08 -4.07325e-08 -5.89421e-09 -2.56178e-09 -1.39271e-09 -1.28657e-09 -1.38597e-09 -1.04881e-08 -7.11847e-09
          -4.94981e-09 -2.65613e-08 -7.44094e-09 -6.70609e-08 -9.11697e-09 -1.309e-08 -2.1214e-08 -4.2975e-08 -7.44914e-09 -7.97305e-10 -5.94041e-10 -4.43752e-10
          -4.47845e-10 -2.85804e-09 -3.04354e-09 -2.47117e-09 -1.53509e-08 -7.69297e-09 -3.90129e-08 -1.67096e-08 -1.46968e-08 -1.68794e-08 -2.38128e-08 -3.9966e-09
        </DataArray>
        <DataArray type="Float32" Name="z[0]" NumberOfComponents="1" format="ascii">
          0.150578 0.150579 0.15058 0.150582 0.150582 0.150583 0.150584 0.150585 0.150585 0.150586 0.150587 0.150588
          0.150589 0.150591 0.150596 0.150581 0.150582 0.150583 0.150585 0.150586 0.150587 0.150587 0.150588 0.150588
          0.150589 0.15059 0.150591 0.150593 0.150595 0.150599 0.150584 0.150585 0.150587 0.150588 0.150589 0.15059
          0.15059 0.150591 0.150592 0.150593 0.150593 0.150595 0.150596 0.150598 0.150602 0.150588 0.150589 0.15059
          0.150591 0.150592 0.150593 0.150594 0.150594 0.150595 0.150596 0.150597 0.150598 0.150599 0.150601 0.150605
          0.150591 0.150592 0.150593 0.150594 0.150595 0.150596 0.150597 0.150597 0.150598 0.150599 0.1506 0.150601
          0.150602 0.150604 0.150609 0.150594 0.150595 0.150596 0.150597 0.150598 0.150599 0.1506 0.1506 0.150601