<?xml version="1.0"?>
<VTKFile type="UnstructuredGrid" version="0.1" byte_order="LittleEndian">
  <UnstructuredGrid>
    <Piece NumberOfCells="360" NumberOfPoints="800">
      <CellData Scalars="pressure[0]">
        <DataArray type="Float32" Name="pressure[0]" NumberOfComponents="1" format="ascii">
          2.47748e+07 2.47293e+07 2.48288e+07 2.48016e+07 2.49394e+07 2.50346e+07 2.50726e+07 2.5096e+07 2.51328e+07 2.5175e+07 2.52251e+07 2.52829e+07
          2.53373e+07 2.54355e+07 2.56417e+07 2.47884e+07 2.48079e+07 2.49362e+07 2.47946e+07 2.50466e+07 2.51704e+07 2.5208e+07 2.52315e+07 2.527e+07
          2.53136e+07 2.53692e+07 2.54273e+07 2.54813e+07 2.558e+07 2.57853e+07 2.48448e+07 2.48918e+07 2.51152e+07 2.48259e+07 2.50877e+07 2.5269e+07
          2.53228e+07 2.53524e+07 2.53991e+07 2.54475e+07 2.55117e+07 2.55719e+07 2.56264e+07 2.57249e+07 2.593e+07 2.49051e+07 2.49645e+07 2.52099e+07
          2.49115e+07 2.51639e+07 2.53637e+07 2.54208e+07 2.54517e+07 2.55209e+07 2.55815e+07 2.56576e+07 2.57184e+07 2.57723e+07 2.58697e+07 2.60751e+07
          2.4933e+07 2.49329e+07 2.44847e+07 2.48899e+07 2.52314e+07 2.54825e+07 2.5532e+07 2.55595e+07 2.56573e+07 2.57329e+07 2.58043e+07 2.58644e+07
          2.59181e+07 2.60146e+07 2.62197e+07 2.51062e+07 2.51469e+07 2.5503e+07 2.53132e+07 2.55064e+07 2.56524e+07 2.56905e+07 2.5717e+07 2.5825e+07
          2.59004e+07 2.59569e+07 2.60104e+07 2.60633e+07 2.61594e+07 2.63643e+07 2.53095e+07 2.53573e+07 2.57185e+07 2.56666e+07 2.57635e+07 2.58374e+07
          2.58709e+07 2.58954e+07 2.59835e+07 2.6054e+07 2.61047e+07 2.61554e+07 2.62081e+07 2.63043e+07 2.65093e+07 2.55384e+07 2.55873e+07 2.58922e+07
          2.59336e+07 2.59778e+07 2.60138e+07 2.60439e+07 2.60658e+07 2.61446e+07 2.62034e+07 2.62497e+07 2.62998e+07 2.63529e+07 2.64491e+07 2.66545e+07
          2.57802e+07 2.583e+07 2.60542e+07 2.61214e+07 2.61511e+07 2.6182e+07 2.62119e+07 2.62321e+07 2.63022e+07 2.63513e+07 2.63945e+07 2.64439e+07
          2.64976e+07 2.6594e+07 2.68e+07 2.60027e+07 2.60561e+07 2.61952e+07 2.62753e+07 2.63061e+07 2.63401e+07 2.63728e+07 2.63939e+07 2.64509e+07
          2.64968e+07 2.65395e+07 2.65891e+07 2.66425e+07 2.67389e+07 2.69448e+07 2.62165e+07 2.62688e+07 2.63561e+07 2.64234e+07 2.64544e+07 2.64897e+07
          2.65261e+07 2.65475e+07 2.65953e+07 2.66412e+07 2.66843e+07 2.67341e+07 2.67872e+07 2.68838e+07 2.70889e+07 2.6398e+07 2.64464e+07 2.65098e+07
          2.65699e+07 2.66007e+07 2.66372e+07 2.66768e+07 2.66988e+07 2.67385e+07 2.67842e+07 2.68285e+07 2.68788e+07 2.69318e+07 2.70288e+07 2.72331e+07
          2.65544e+07 2.66018e+07 2.66591e+07 2.67168e+07 2.67508e+07 2.67878e+07 2.68243e+07 2.68488e+07 2.68854e+07 2.69292e+07 2.69732e+07 2.70242e+07
          2.70772e+07 2.71736e+07 2.73767e+07 2.67029e+07 2.67501e+07 2.68068e+07 2.68636e+07 2.69022e+07 2.69408e+07 2.69746e+07 2.69971e+07 2.70326e+07
          2.70742e+07 2.71172e+07 2.71696e+07 2.72234e+07 2.73178e+07 2.75348e+07 2.68486e+07 2.68955e+07 2.69529e+07 2.70093e+07 2.70506e+07 2.70907e+07
          2.71216e+07 2.7143e+07 2.71782e+07 2.7219e+07 2.72613e+07 2.73153e+07 2.73712e+07 2.74799e+07 2.76944e+07 2.69933e+07 2.70404e+07 2.7098e+07
          2.71545e+07 2.71962e+07 2.72365e+07 2.72661e+07 2.7287e+07 2.73223e+07 2.73632e+07 2.74127e+07 2.74727e+07 2.75408e+07 2.76609e+07 2.78561e+07
          2.71376e+07 2.71848e+07 2.72426e+07 2.72987e+07 2.73408e+07 2.73814e+07 2.74181e+07 2.74465e+07 2.74852e+07 2.75298e+07 2.75735e+07 2.76384e+07
          2.77272e+07 2.78695e+07 2.80164e+07 2.72807e+07 2.73283e+07 2.73869e+07 2.74512e+07 2.7501e+07 2.75458e+07 2.75814e+07 2.76092e+07 2.76486e+07
          2.76938e+07 2.77339e+07 2.78048e+07 2.79177e+07 2.80803e+07 2.81762e+07 2.74374e+07 2.74894e+07 2.75506e+07 2.76139e+07 2.7664e+07 2.77093e+07
          2.77456e+07 2.77738e+07 2.78134e+07 2.78592e+07 2.79013e+07 2.79906e+07 2.81547e+07 2.83225e+07 2.83408e+07 2.75959e+07 2.76485e+07 2.77101e+07
          2.77742e+07 2.78261e+07 2.78715e+07 2.79092e+07 2.79389e+07 2.79789e+07 2.80265e+07 2.80657e+07 2.81789e+07 2.8455e+07 2.86298e+07 2.85206e+07
          2.77549e+07 2.78075e+07 2.78693e+07 2.79334e+07 2.79873e+07 2.80332e+07 2.80731e+07 2.81052e+07 2.81484e+07 2.82019e+07 2.82431e+07 2.8453e+07
          2.88424e+07 2.90733e+07 2.87418e+07 2.79139e+07 2.79665e+07 2.80285e+07 2.8093e+07 2.81482e+07 2.81949e+07 2.82386e+07 2.82748e+07 2.83226e+07
          2.83853e+07 2.84802e+07 2.8998e+07 2.94139e+07 2.98e+07 2.92599e+07 2.80729e+07 2.81256e+07 2.81877e+07 2.82534e+07 2.83091e+07 2.83574e+07
          2.84077e+07 2.84511e+07 2.8509e+07 2.85912e+07 2.8913e+07 3.00481e+07 3.05752e+07 3.11368e+07 3.02637e+07 2.8232e+07 2.82846e+07 2.83464e+07
          2.84098e+07 2.84684e+07 2.85172e+07 2.85742e+07 2.86327e+07 2.87113e+07 2.8838e+07 2.99683e+07 3.17201e+07 3.2552e+07 3.31933e+07 3.21539e+07
        </DataArray>
        <DataArray type="Float32" Name="pressure[1]" NumberOfComponents="1" format="ascii">
          2.47748e+07 2.47293e+07 2.48288e+07 2.48016e+07 2.49394e+07 2.50346e+07 2.50726e+07 2.5096e+07 2.51328e+07 2.5175e+07 2.52251e+07 2.52829e+07
          2.53373e+07 2.54355e+07 2.56417e+07 2.47884e+07 2.48079e+07 2.49362e+07 2.47946e+07 2.50466e+07 2.51704e+07 2.5208e+07 2.52315e+07 2.527e+07
          2.53136e+07 2.53692e+07 2.54273e+07 2.54813e+07 2.558e+07 2.57853e+07 2.48448e+07 2.48918e+07 2.51152e+07 2.48259e+07 2.50877e+07 2.5269e+07
          2.53228e+07 2.53524e+07 2.53991e+07 2.54475e+07 2.55117e+07 2.55719e+07 2.56264e+07 2.57249e+07 2.593e+07 2.49051e+07 2.49645e+07 2.52099e+07
          2.49115e+07 2.51639e+07 2.53637e+07 2.54208e+07 2.54517e+07 2.55209e+07 2.55815e+07 2.56576e+07 2.57184e+07 2.57723e+07 2.58697e+07 2.60751e+07
          2.4933e+07 2.49329e+07 2.44847e+07 2.48899e+07 2.52314e+07 2.54825e+07 2.5532e+07 2.55595e+07 2.56573e+07 2.57329e+07 2.58043e+07 2.58644e+07
          2.59181e+07 2.60146e+07 2.62197e+07 2.51062e+07 2.51469e+07 2.5503e+07 2.53132e+07 2.55064e+07 2.56524e+07 2.56905e+07 2.5717e+07 2.5825e+07
          2.59004e+07 2.59569e+07 2.60104e+07 2.60633e+07 2.61594e+07 2.63643e+07 2.53095e+07 2.53573e+07 2.57185e+07 2.56666e+07 2.57635e+07 2.58374e+07
          2.58709e+07 2.58954e+07 2.59835e+07 2.6054e+07 2.61047e+07 2.61554e+07 2.62081e+07 2.63043e+07 2.65093e+07 2.55384e+07 2.55873e+07 2.58922e+07
          2.59336e+07 2.59778e+07 2.60138e+07 2.60439e+07 2.60658e+07 2.61446e+07 2.62034e+07 2.62497e+07 2.62998e+07 2.63529e+07 2.64491e+07 2.66545e+07
          2.57802e+07 2.583e+07 2.60542e+07 2.61214e+07 2.61511e+07 2.6182e+07 2.62119e+07 2.62321e+07 2.63022e+07 2.63513e+07 2.63945e+07 2.64439e+07
          2.64976e+07 2.6594e+07 2.68e+07 2.60027e+07 2.60561e+07 2.61952e+07 2.62753e+07 2.63061e+07 2.63401e+07 2.63728e+07 2.63939e+07 2.64509e+07
          2.64968e+07 2.65395e+07 2.65891e+07 2.66425e+07 2.67389e+07 2.69448e+07 2.62165e+07 2.62688e+07 2.63561e+07 2.64234e+07 2.64544e+07 2.64897e+07
          2.65261e+07 2.65475e+07 2.65953e+07 2.66412e+07 2.66843e+07 2.67341e+07 2.67872e+07 2.68838e+07 2.70889e+07 2.6398e+07 2.64464e+07 2.65098e+07
          2.65699e+07 2.66007e+07 2.66372e+07 2.66768e+07 2.66988e+07 2.67385e+07 2.67842e+07 2.68285e+07 2.68788e+07 2.69318e+07 2.70288e+07 2.72331e+07
          2.65544e+07 2.66018e+07 2.66591e+07 2.67168e+07 2.67508e+07 2.67878e+07 2.68243e+07 2.68488e+07 2.68854e+07 2.69292e+07 2.69732e+07 2.70242e+07
          2.70772e+07 2.71736e+07 2.73767e+07 2.67029e+07 2.67501e+07 2.68068e+07 2.68636e+07 2.69022e+07 2.69408e+07 2.69746e+07 2.69971e+07 2.70326e+07
          2.70742e+07 2.71172e+07 2.71696e+07 2.72234e+07 2.73178e+07 2.75348e+07 2.68486e+07 2.68955e+07 2.69529e+07 2.70093e+07 2.70506e+07 2.70907e+07
          2.71216e+07 2.7143e+07 2.71782e+07 2.7219e+07 2.72613e+07 2.73153e+07 2.73712e+07 2.74799e+07 2.76944e+07 2.69933e+07 2.70404e+07 2.7098e+07
          2.71545e+07 2.71962e+07 2.72365e+07 2.72661e+07 2.7287e+07 2.73223e+07 2.73632e+07 2.74127e+07 2.74727e+07 2.75408e+07 2.76609e+07 2.78561e+07
          2.71376e+07 2.71848e+07 2.72426e+07 2.72987e+07 2.73408e+07 2.73814e+07 2.74181e+07 2.74465e+07 2.74852e+07 2.75298e+07 2.75735e+07 2.76384e+07
          2.77272e+07 2.78695e+07 2.80164e+07 2.72807e+07 2.73283e+07 2.73869e+07 2.74512e+07 2.7501e+07 2.75458e+07 2.75814e+07 2.76092e+07 2.76486e+07
          2.76938e+07 2.77339e+07 2.78048e+07 2.79177e+07 2.80803e+07 2.81762e+07 2.74374e+07 2.74894e+07 2.75506e+07 2.76139e+07 2.7664e+07 2.77093e+07
          2.77456e+07 2.77738e+07 2.78134e+07 2.78592e+07 2.79013e+07 2.79906e+07 2.81547e+07 2.83225e+07 2.83408e+07 2.75959e+07 2.76485e+07 2.77101e+07
          2.77742e+07 2.78261e+07 2.78715e+07 2.79092e+07 2.79389e+07 2.79789e+07 2.80265e+07 2.80657e+07 2.81789e+07 2.8455e+07 2.86298e+07 2.85206e+07
          2.77549e+07 2.78075e+07 2.78693e+07 2.79334e+07 2.79873e+07 2.80332e+07 2.80731e+07 2.81052e+07 2.81484e+07 2.82019e+07 2.82431e+07 2.8453e+07
          2.88424e+07 2.90733e+07 2.87418e+07 2.79139e+07 2.79665e+07 2.80285e+07 2.8093e+07 2.81482e+07 2.81949e+07 2.82386e+07 2.82748e+07 2.83226e+07
          2.83853e+07 2.84802e+07 2.8998e+07 2.94139e+07 2.98e+07 2.92599e+07 2.80729e+07 2.81256e+07 2.81877e+07 2.82534e+07 2.83091e+07 2.83574e+07
          2.84077e+07 2.84511e+07 2.8509e+07 2.85912e+07 2.8913e+07 3.00481e+07 3.05752e+07 3.11368e+07 3.02637e+07 2.8232e+07 2.82846e+07 2.83464e+07
          2.84098e+07 2.84684e+07 2.85172e+07 2.85742e+07 2.86327e+07 2.87113e+07 2.8838e+07 2.99683e+07 3.17201e+07 3.2552e+07 3.31933e+07 3.21539e+07
        </DataArray>
        <DataArray type="Float32" Name="pressure[2]" NumberOfComponents="1" format="ascii">
          2.47748e+07 2.47293e+07 2.48288e+07 2.48016e+07 2.49394e+07 2.50346e+07 2.50726e+07 2.5096e+07 2.51328e+07 2.5175e+07 2.52251e+07 2.52829e+07
          2.53373e+07 2.54355e+07 2.56417e+07 2.47884e+07 2.48079e+07 2.49362e+07 2.47946e+07 2.50466e+07 2.51704e+07 2.5208e+07 2.52315e+07 2.527e+07
          2.53136e+07 2.53692e+07 2.54273e+07 2.54813e+07 2.558e+07 2.57853e+07 2.48448e+07 2.48918e+07 2.51152e+07 2.48259e+07 2.50877e+07 2.5269e+07
          2.53228e+07 2.53524e+07 2.53991e+07 2.54475e+07 2.55117e+07 2.55719e+07 2.56264e+07 2.57249e+07 2.593e+07 2.49051e+07 2.49645e+07 2.52099e+07
          2.49115e+07 2.51639e+07 2.53637e+07 2.54208e+07 2.54517e+07 2.55209e+07 2.55815e+07 2.56576e+07 2.57184e+07 2.57723e+07 2.58697e+07 2.60751e+07
          2.4933e+07 2.49329e+07 2.44847e+07 2.48899e+07 2.52314e+07 2.54825e+07 2.5532e+07 2.55595e+07 2.56573e+07 2.57329e+07 2.58043e+07 2.58644e+07
          2.59181e+07 2.60146e+07 2.62197e+07 2.51062e+07 2.51469e+07 2.5503e+07 2.53132e+07 2.55064e+07 2.56524e+07 2.56905e+07 2.5717e+07 2.5825e+07
          2.59004e+07 2.59569e+07 2.60104e+07 2.60633e+07 2.61594e+07 2.63643e+07 2.53095e+07 2.53573e+07 2.57185e+07 2.56666e+07 2.57635e+07 2.58374e+07
          2.58709e+07 2.58954e+07 2.59835e+07 2.6054e+07 2.61047e+07 2.61554e+07 2.62081e+07 2.63043e+07 2.65093e+07 2.55384e+07 2.55873e+07 2.58922e+07
          2.59336e+07 2.59778e+07 2.60138e+07 2.60439e+07 2.60658e+07 2.61446e+07 2.62034e+07 2.62497e+07 2.62998e+07 2.63529e+07 2.64491e+07 2.66545e+07
          2.57802e+07 2.583e+07 2.60542e+07 2.61214e+07 2.61511e+07 2.6182e+07 2.62119e+07 2.62321e+07 2.63022e+07 2.63513e+07 2.63945e+07 2.64439e+07
          2.64976e+07 2.6594e+07 2.68e+07 2.60027e+07 2.60561e+07 2.61952e+07 2.62753e+07 2.63061e+07 2.63401e+07 2.63728e+07 2.63939e+07 2.64509e+07
          2.64968e+07 2.65395e+07 2.65891e+07 2.66425e+07 2.67389e+07 2.69448e+07 2.62165e+07 2.62688e+07 2.63561e+07 2.64234e+07 2.64544e+07 2.64897e+07
          2.65261e+07 2.65475e+07 2.65953e+07 2.66412e+07 2.66843e+07 2.67341e+07 2.67872e+07 2.68838e+07 2.70889e+07 2.6398e+07 2.64464e+07 2.65098e+07
          2.65699e+07 2.66007e+07 2.66372e+07 2.66768e+07 2.66988e+07 2.67385e+07 2.67842e+07 2.68285e+07 2.68788e+07 2.69318e+07 2.70288e+07 2.72331e+07
          2.65544e+07 2.66018e+07 2.66591e+07 2.67168e+07 2.67508e+07 2.67878e+07 2.68243e+07 2.68488e+07 2.68854e+07 2.69292e+07 2.69732e+07 2.70242e+07
          2.70772e+07 2.71736e+07 2.73767e+07 2.67029e+07 2.67501e+07 2.68068e+07 2.68636e+07 2.69022e+07 2.69408e+07 2.69746e+07 2.69971e+07 2.70326e+07
          2.70742e+07 2.71172e+07 2.71696e+07 2.72234e+07 2.73178e+07 2.75348e+07 2.68486e+07 2.68955e+07 2.69529e+07 2.70093e+07 2.70506e+07 2.70907e+07
          2.71216e+07 2.7143e+07 2.71782e+07 2.7219e+07 2.72613e+07 2.73153e+07 2.73712e+07 2.74799e+07 2.76944e+07 2.69933e+07 2.70404e+07 2.7098e+07
          2.71545e+07 2.71962e+07 2.72365e+07 2.72661e+07 2.7287e+07 2.73223e+07 2.73632e+07 2.74127e+07 2.74727e+07 2.75408e+07 2.76609e+07 2.78561e+07
          2.71376e+07 2.71848e+07 2.72426e+07 2.72987e+07 2.73408e+07 2.73814e+07 2.74181e+07 2.74465e+07 2.74852e+07 2.75298e+07 2.75735e+07 2.76384e+07
          2.77272e+07 2.78695e+07 2.80164e+07 2.72807e+07 2.73283e+07 2.73869e+07 2.74512e+07 2.7501e+07 2.75458e+07 2.75814e+07 2.76092e+07 2.76486e+07
          2.76938e+07 2.77339e+07 2.78048e+07 2.79177e+07 2.80803e+07 2.81762e+07 2.74374e+07 2.74894e+07 2.75506e+07 2.76139e+07 2.7664e+07 2.77093e+07
          2.77456e+07 2.77738e+07 2.78134e+07 2.78592e+07 2.79013e+07 2.79906e+07 2.81547e+07 2.83225e+07 2.83408e+07 2.75959e+07 2.76485e+07 2.77101e+07
          2.77742e+07 2.78261e+07 2.78715e+07 2.79092e+07 2.79389e+07 2.79789e+07 2.80265e+07 2.80657e+07 2.81789e+07 2.8455e+07 2.86298e+07 2.85206e+07
          2.77549e+07 2.78075e+07 2.78693e+07 2.79334e+07 2.79873e+07 2.80332e+07 2.80731e+07 2.81052e+07 2.81484e+07 2.82019e+07 2.82431e+07 2.8453e+07
          2.88424e+07 2.90733e+07 2.87418e+07 2.79139e+07 2.79665e+07 2.80285e+07 2.8093e+07 2.81482e+07 2.81949e+07 2.82386e+07 2.82748e+07 2.83226e+07
          2.83853e+07 2.84802e+07 2.8998e+07 2.94139e+07 2.98e+07 2.92599e+07 2.80729e+07 2.81256e+07 2.81877e+07 2.82534e+07 2.83091e+07 2.83574e+07
          2.84077e+07 2.84511e+07 2.8509e+07 2.85912e+07 2.8913e+07 3.00481e+07 3.05752e+07 3.11368e+07 3.02637e+07 2.8232e+07 2.82846e+07 2.83464e+07
          2.84098e+07 2.84684e+07 2.85172e+07 2.85742e+07 2.86327e+07 2.87113e+07 2.8838e+07 2.99683e+07 3.17201e+07 3.2552e+07 3.31933e+07 3.21539e+07
        </DataArray>
        <DataArray type="Float32" Name="velocity[0]" NumberOfComponents="1" format="ascii">
          6.7904e-08 8.56425e-07 6.34154e-10 6.64263e-08 5.55409e-10 3.73442e-10 1.79615e-09 1.56173e-09 2.21595e-09 1.02767e-09 -6.43947e-11 -8.77107e-11
          -1.01176e-10 -2.49285e-11 -1.50349e-10 1.47135e-07 1.88331e-06 2.88175e-10 3.27342e-07 2.17065e-09 3.51302e-09 9.09029e-09 6.32805e-09 6.2502e-09
          2.46541e-09 -6.86428e-11 -2.40316e-10 -2.00813e-10 -5.48138e-11 -3.0386e-10 1.75405e-07 2.07798e-06 -6.41967e-11 6.3088e-07 3.69067e-09 8.27006e-09
          1.76443e-08 1.44972e-08 6.73283e-09 2.22623e-09 -6.67319e-11 -5.16946e-10 -1.75576e-10 -7.38884e-11 -2.95362e-10 2.96842e-07 2.01975e-06 4.8891e-09
          8.81173e-07 5.90622e-09 9.87392e-09 2.30705e-08 2.27928e-08 3.01751e-09 3.38005e-10 -1.24402e-10 -8.47906e-10 -1.11092e-10 -8.46128e-11 -3.04304e-10
          1.30742e-07 7.79159e-07 2.49788e-10 2.73041e-07 -7.31082e-09 -1.0937e-08 1.32153e-09 2.76924e-09 -2.3507e-10 -8.15024e-10 -2.28848e-10 -1.57264e-09
          -5.38991e-11 -6.9405e-11 -3.1153e-10 -1.52372e-07 -2.83629e-07 -4.68189e-09 -3.05673e-07 -2.44746e-08 -6.929e-08 -2.81349e-08 -4.65988e-08 -7.88514e-10
          -4.32451e-10 -3.17935e-10 -2.35524e-09 -3.38048e-11 -5.1337e-11 -2.56084e-10 -1.38177e-07 -1.54879e-07 -4.90302e-10 -7.67744e-08 -1.86237e-08 -1.08273e-07
          -2.68981e-08 -8.01038e-08 -4.43038e-10 -1.01011e-10 -3.0763e-10 -2.67409e-09 -2.89309e-11 -4.51357e-11 -1.84056e-10 -8.94916e-08 -9.68044e-08 -3.10963e-10
          -1.02247e-08 -6.85352e-09 -9.68624e-08 -1.31923e-08 -7.99075e-08 -3.18772e-10 -5.94134e-11 -3.14047e-10 -2.75571e-09 -2.39819e-11 -4.11398e-11 -1.69041e-10
          -5.25414e-08 -5.58063e-08 -1.30867e-10 -1.04989e-09 -2.18766e-09 -7.48897e-08 -3.7504e-09 -6.45106e-08 -1.43377e-10 -4.26313e-11 -4.11962e-10 -2.32105e-09
          -2.0892e-11 -3.39096e-11 -2.6793e-10 -2.5957e-08 -2.9438e-08 -3.38614e-10 -1.20847e-10 -9.49744e-10 -5.76802e-08 -8.85027e-10 -5.32674e-08 -4.69932e-11
          -2.96175e-11 -5.82557e-10 -1.63374e-09 -2.64838e-11 -3.25744e-11 -4.31599e-10 -9.75783e-09 -1.42287e-08 -6.9986e-10 -3.68481e-11 -6.06944e-10 -4.31524e-08
          -2.31974e-10 -4.67557e-08 -3.25437e-11 -2.02544e-11 -6.07723e-10 -1.11091e-09 -5.6361e-11 -4.22254e-11 -5.02846e-10 -3.72039e-09 -6.78891e-09 -6.84709e-10
          -2.13837e-11 -8.54429e-10 -2.99167e-08 -1.06561e-10 -3.8854e-08 -5.4671e-10 -5.72013e-11 -5.44606e-10 -7.1756e-10 -1.73009e-10 -7.36603e-11 -4.16327e-10
          -1.81754e-09 -3.6919e-09 -4.95847e-10 -3.22806e-11 -1.09453e-09 -1.86346e-08 -1.03956e-10 -2.92783e-08 -2.18054e-09 -1.5202e-10 -4.26908e-10 -3.4817e-10
          -4.17486e-10 -1.49488e-10 -1.10857e-10 -1.18182e-09 -2.59595e-09 -2.08183e-10 -4.72398e-11 -1.01473e-09 -1.17182e-08 -1.00153e-10 -2.11714e-08 -3.67854e-09
          -4.2838e-10 -3.053e-10 -1.22354e-10 -8.04911e-10 -2.82556e-10 3.54042e-11 -1.02436e-09 -1.92342e-09 -7.67246e-11 -5.94624e-11 -1.10611e-09 -8.84845e-09
          -5.69373e-11 -1.57707e-08 -3.99121e-09 -8.79595e-10 1.90978e-11 -3.01211e-11 -1.30395e-09 -1.69901e-09 -1.22491e-10 -9.61077e-10 -1.25979e-09 -5.36937e-11
          -8.47628e-11 -1.24899e-09 -7.67122e-09 3.8045e-11 -7.74386e-09 -4.55862e-09 -2.6606e-09 1.41376e-10 -5.54708e-11 -2.2907e-09 -6.71504e-09 -1.40916e-10
          -6.61765e-10 -7.36785e-10 -6.38144e-11 7.87692e-11 -8.6932e-10 -6.80411e-09 -1.80616e-11 -6.78106e-09 -5.35543e-09 -4.09601e-09 -3.26587e-11 -1.24529e-10
          -2.73854e-09 -2.07218e-08 -5.9695e-11 2.23873e-10 -4.50465e-10 -9.86396e-11 8.38564e-11 -2.04076e-09 -5.54381e-09 -2.43809e-10 -1.32279e-08 -7.85872e-09
          -6.11853e-09 -8.16205e-11 -2.52488e-10 -4.41602e-09 -4.71555e-08 -9.32156e-11 5.98493e-10 -2.02296e-10 -6.89576e-11 -5.8228e-11 -4.11394e-09 -4.03546e-09
          -3.36048e-10 -1.47528e-08 -1.1173e-08 -1.39108e-08 -1.14832e-10 -4.00182e-10 -1.25024e-08 -8.75826e-08 -3.72355e-10 2.20748e-10 1.64042e-11 -8.4596e-12
          -1.29579e-11 -5.07722e-09 -2.62286e-09 -3.57678e-10 -1.47588e-08 -9.34852e-09 -3.47403e-08 -1.66901e-10 -1.01087e-09 -3.38892e-08 -1.54704e-07 -1.79941e-09
          1.02529e-10 2.3041e-11 -2.90706e-12 -5.11966e-12 -5.45499e-09 -1.71346e-09 -4.17819e-10 -1.53092e-08 -5.17921e-09 -6.703e-08 -5.41669e-10 -5.02378e-09
          -6.90059e-08 -2.75049e-07 -1.17181e-08 5.82385e-11 1.51256e-11 -4.21893e-12 -1.61536e-11 -4.31802e-09 -1.47047e-09 -5.67906e-10 -1.99902e-08 -4.06368e-09
          -1.01853e-07 -2.11016e-09 -3.13202e-08 -1.41858e-07 -4.99206e-07 -6.76307e-08 3.94306e-11 1.61416e-11 4.57643e-12 3.25075e-12 -1.66402e-09 -8.38269e-10
          -4.86938e-10 -2.81961e-08 -5.13738e-09 -1.33792e-07 -1.09082e-08 -1.1561e-07 -3.46883e-07 -9.38574e-07 -2.53155e-07 1.62784e-11 7.97995e-12 7.13823e-12
          1.51704e-11 -3.07931e-11 -9.41927e-11 -1.4877e-10 -1.62309e-08 -2.98161e-09 -7.40091e-08 -9.21769e-09 -8.85083e-08 -2.4946e-07 -6.15665e-07 -1.95741e-07
        </DataArray>
        <DataArray type="Float32" Name="velocity[1]" NumberOfComponents="1" format="ascii">
          -1.05531e-23 2.33593e-22 1.25304e-24 1.03234e-23 -8.63171e-26 0 -2.79143e-25 -4.08201e-26 3.33579e-25 1.88795e-25 -4.67851e-25 5.53854e-26
          4.6914e-26 -3.65941e-27 4.33829e-26 -1.76027e-24 2.44279e-23 1.74135e-24 3.02259e-23 -2.02765e-24 1.31216e-24 -1.08277e-24 -6.59232e-25 -1.22389e-24
          -7.75846e-25 0 -6.05315e-26 4.10402e-26 7.70976e-28 4.91605e-28 -2.63323e-24 -1.5822e-22 -7.9072e-25 1.69474e-23 -6.94465e-24 0
          -1.71693e-24 -1.2842e-24 -2.07577e-25 0 2.79174e-25 -4.24769e-25 0 7.84003e-27 -5.73237e-27 -2.92584e-23 1.66349e-22 6.05454e-25
          -8.08875e-23 -5.02314e-24 9.77572e-24 -1.18301e-23 1.0944e-23 -2.41006e-24 2.34424e-24 2.87674e-25 -1.2429e-25 4.0997e-26 -1.03714e-26 8.99692e-27
          -4.74275e-24 -3.59982e-22 2.00324e-24 2.16978e-23 -1.1301e-23 -9.6167e-24 2.83701e-24 -1.28251e-24 -2.59503e-24 -1.09148e-24 -3.74788e-26 -2.16972e-25
          -8.7248e-27 1.88752e-27 -2.31683e-26 -4.46161e-24 2.96424e-23 1.19901e-24 3.63613e-25 3.67521e-24 -1.13427e-23 0 -1.16463e-24 -1.66199e-24
          -2.27781e-25 -2.20781e-25 1.19532e-25 -3.53546e-27 5.57587e-27 7.3357e-27 -2.80105e-25 9.50646e-24 0 1.59373e-23 7.22955e-25 -3.93842e-24
          -1.8599e-24 -8.51147e-25 -1.44161e-24 1.41295e-25 -1.46801e-26 -1.1852e-26 3.93741e-27 6.40414e-28 -1.66303e-26 -3.01865e-24 8.91344e-24 -3.0052e-26
          1.42105e-24 -9.17928e-25 1.17352e-23 -1.3019e-24 -6.13405e-25 -7.03356e-25 -7.13448e-26 -6.50088e-26 -2.00752e-25 -4.82419e-27 -1.19695e-27 1.42968e-26
          -4.36195e-24 -2.38853e-24 -3.69103e-25 1.07466e-25 3.409e-25 8.87713e-25 0 0 3.43469e-27 2.54865e-26 -7.69493e-27 1.16412e-25
          -1.49329e-26 1.72947e-27 1.19778e-26 -2.91866e-24 2.89006e-24 6.4601e-26 2.02069e-25 3.50745e-25 7.96079e-25 5.22458e-26 -2.95135e-25 1.10943e-25
          -1.42638e-26 -6.43933e-27 8.11527e-26 -2.51513e-27 0 -2.73426e-26 1.32287e-24 5.58426e-25 -8.82591e-28 1.27362e-25 4.90529e-25 4.8134e-25
          3.47999e-25 -5.79842e-25 2.05066e-25 2.09399e-26 8.78893e-27 1.06132e-25 3.55093e-26 -1.94612e-27 9.73061e-28 -1.77083e-25 3.36333e-25 -2.39781e-25
          -2.01635e-25 3.71818e-25 -1.39744e-24 -4.28722e-27 -6.53131e-25 1.34549e-25 -5.68388e-26 -2.69098e-26 3.67609e-26 -3.0157e-26 1.03719e-26 -1.40592e-27
          4.89189e-26 4.1858e-25 0 -1.58311e-27 -1.86895e-25 1.38762e-24 -1.83949e-25 -6.58553e-25 -1.74755e-25 -4.88701e-26 -1.94471e-27 -1.25948e-26
          1.89991e-26 -4.18786e-27 3.72697e-26 -2.70985e-26 3.01707e-26 3.12658e-26 2.54879e-26 -1.60597e-25 1.17716e-24 -8.54436e-26 -5.04329e-25 4.33587e-25
          -1.32633e-25 2.5178e-26 4.46247e-26 -8.50921e-26 -5.83318e-27 1.74016e-26 -6.73274e-26 -9.65609e-26 -1.02884e-26 4.04167e-27 1.87928e-26 5.3638e-26
          -2.243e-27 -5.58015e-25 1.23477e-25 0 0 6.42043e-27 1.76471e-25 -2.18445e-26 3.98371e-26 0 4.38367e-26 0
          -7.97367e-27 -2.53208e-26 3.45292e-26 -1.25184e-26 -9.45115e-25 -5.85084e-26 -5.73202e-26 1.71753e-26 1.53936e-25 4.75273e-25 -8.02748e-26 3.91163e-27
          1.83666e-26 9.61148e-27 -1.06244e-26 4.43235e-26 -8.02166e-26 -3.67932e-25 0 4.62153e-25 0 -1.06305e-25 3.16247e-26 -2.08668e-25
          1.24125e-24 -1.13293e-24 2.85398e-27 0 3.85304e-26 0 -2.02288e-26 6.16357e-26 -8.11914e-26 -1.76717e-25 8.15073e-26 -7.54271e-25
          -3.32852e-25 8.2513e-26 5.16336e-25 1.11691e-24 -6.30557e-25 -1.16328e-26 -2.38255e-26 5.77709e-27 1.81224e-27 -4.47589e-26 1.58988e-25 3.72935e-25
          1.76585e-25 1.52791e-25 7.91941e-25 -4.56584e-26 -9.5736e-26 -5.41203e-25 3.1012e-24 2.94043e-24 4.62355e-26 6.45293e-27 1.8432e-26 -1.28125e-28
          -7.17813e-26 1.65664e-26 -4.45536e-25 -2.59792e-25 -5.92049e-26 -1.41973e-24 1.67372e-24 -1.98982e-25 -7.11958e-25 6.53759e-24 5.58312e-24 1.40942e-25
          5.02848e-27 -1.41628e-27 0 5.74375e-26 -1.32732e-26 5.42798e-25 -5.81536e-25 1.55285e-24 -9.35495e-25 -5.94875e-25 0 0
          -4.34654e-24 8.92239e-24 1.58772e-24 1.85471e-27 -1.18662e-26 3.79667e-27 -8.87554e-26 -8.13365e-26 1.60166e-25 -9.64582e-25 2.65373e-25 -1.44345e-24
          2.43299e-24 1.12692e-24 1.28073e-24 3.4904e-23 -1.88359e-23 2.51036e-23 3.74137e-27 -3.24851e-27 -1.01867e-26 -1.79089e-25 -4.63484e-25 4.45043e-25
          -2.94347e-26 3.67905e-24 -1.24184e-24 0 -1.16981e-24 -2.7874e-23 4.13602e-23 -1.24549e-23 0 4.41606e-28 -2.23552e-27 -5.71786e-27
          1.83963e-27 2.11821e-25 -6.54329e-25 -1.73313e-24 -1.21051e-24 4.63377e-25 -2.1669e-23 0 3.75169e-23 -1.03822e-22 1.38617e-22 -8.03932e-24
        </DataArray>
        <DataArray type="Float32" Name="velocity[2]" NumberOfComponents="1" format="ascii">
          2.22313e-08 1.61042e-07 2.91364e-10 1.13653e-08 -1.00742e-09 -4.58251e-10 -8.89733e-12 -2.63728e-11 7.78128e-11 -1.01466e-10 -1.88996e-10 -9.5851e-11
          -5.23415e-11 -1.92098e-11 -3.36945e-11 3.35163e-08 3.39375e-07 5.31749e-10 5.76003e-08 -8.13391e-10 1.15777e-10 1.1731e-09 6.14398e-10 6.33057e-10
          1.17315e-10 -1.79497e-10 -1.15922e-10 -6.41912e-11 -1.92915e-11 -5.75672e-11 3.09535e-08 3.66221e-07 2.19311e-10 1.09362e-07 -2.86264e-09 -4.79537e-10
          1.72587e-09 1.25813e-09 2.00985e-10 -6.87773e-11 -2.17046e-10 -1.71773e-10 -5.9858e-11 -2.43763e-11 -5.62861e-11 4.67487e-08 3.50249e-07 1.0757e-09
          1.52248e-07 -4.64758e-09 -1.67458e-09 1.79159e-09 2.1237e-09 -7.26769e-10 -4.01121e-10 -1.70896e-10 -1.97471e-10 -3.75475e-11 -2.61449e-11 -5.921e-11
          4.31283e-08 1.58125e-07 2.4484e-10 4.02492e-08 -1.34293e-08 -9.4107e-09 -4.19873e-09 -1.97063e-09 -1.13042e-09 -5.50224e-10 -2.17766e-10 -3.33532e-10
          -1.56422e-11 -1.77517e-11 -5.87019e-11 -2.41198e-08 -4.76585e-08 -9.00384e-10 -5.94345e-08 -1.46439e-08 -1.85802e-08 -8.15249e-09 -9.93205e-09 -6.494e-10
          -2.16749e-10 -1.16193e-10 -4.37523e-10 -1.04912e-11 -1.35204e-11 -4.81124e-11 -2.44854e-08 -2.78304e-08 -3.48092e-10 -1.50652e-08 -6.36716e-09 -2.12991e-08
          -6.17805e-09 -1.50703e-08 -4.34966e-10 -9.69676e-11 -9.20892e-11 -4.89955e-10 -8.75577e-12 -1.06022e-11 -3.41159e-11 -1.59501e-08 -1.75648e-08 -3.63359e-10
          -1.81095e-09 -1.14181e-09 -1.70877e-08 -2.49125e-09 -1.43219e-08 -2.51742e-10 -5.18725e-11 -7.33539e-11 -4.95746e-10 -9.13599e-12 -1.12785e-11 -3.22874e-11
          -9.38938e-09 -1.0184e-08 -2.55311e-10 -1.38152e-10 -1.48402e-10 -1.30406e-08 -6.07573e-10 -1.13713e-08 -1.01596e-10 -2.11907e-11 -6.8637e-11 -4.05797e-10
          -9.12743e-12 -9.36713e-12 -4.95267e-11 -4.81625e-09 -5.74556e-09 -4.11233e-10 -3.51315e-11 -2.49019e-11 -1.01167e-08 -2.13179e-10 -9.42554e-09 -5.62585e-11
          -1.41421e-11 -9.91456e-11 -2.85769e-10 -9.63791e-12 -9.42248e-12 -7.87049e-11 -1.79309e-09 -2.73165e-09 -2.92842e-10 -3.49045e-12 3.16252e-11 -7.55042e-09
          -9.74776e-11 -8.29224e-09 -6.341e-11 -1.61244e-11 -1.12569e-10 -2.04258e-10 -1.78437e-11 -1.08967e-11 -9.07556e-11 -6.77526e-10 -1.29421e-09 -2.05493e-10
          1.03564e-11 2.15494e-13 -5.19034e-09 -6.35464e-11 -6.96756e-09 -2.44319e-10 -6.29097e-11 -1.27033e-10 -1.52626e-10 -4.79227e-11 -1.92273e-11 -7.64278e-11
          -3.27028e-10 -6.82079e-10 -1.16799e-10 5.41603e-12 -1.02357e-10 -3.26922e-09 -1.01497e-10 -5.32602e-09 -5.56358e-10 -7.96091e-11 -1.1049e-10 -9.89435e-11
          -1.04233e-10 -3.96715e-11 -2.36566e-11 -2.11565e-10 -4.68927e-10 -4.72914e-11 -4.48635e-12 -1.40158e-10 -2.05081e-09 -3.90236e-11 -3.8273e-09 -7.85161e-10
          -1.46645e-10 -9.14288e-11 -4.54949e-11 -1.55219e-10 -3.37808e-11 2.41264e-11 -1.74801e-10 -3.39106e-10 -2.13418e-11 -1.09038e-11 -1.76632e-10 -1.54914e-09
          -1.52812e-11 -2.82816e-09 -7.85073e-10 -2.01178e-10 -2.26629e-11 -3.59982e-11 -2.70465e-10 -3.03911e-10 -2.54971e-12 -1.69416e-10 -2.28567e-10 -1.85484e-11
          -1.78277e-11 -2.14695e-10 -1.34707e-09 1.17858e-11 -1.5119e-09 -1.04692e-09 -5.75013e-10 6.22008e-13 -5.19142e-11 -5.22135e-10 -1.20893e-09 3.61548e-11
          -1.23421e-10 -1.46473e-10 -2.4109e-11 3.9437e-12 -1.82425e-10 -1.25826e-09 -8.393e-11 -1.16093e-09 -8.22778e-10 -6.69951e-10 -9.42723e-12 -1.13115e-10
          -9.31648e-10 -3.89005e-09 1.24585e-10 1.04233e-11 -1.25766e-10 -3.98539e-11 -1.15469e-11 -3.56195e-10 -1.00448e-09 -1.77232e-10 -2.48224e-09 -1.4685e-09
          -1.07675e-09 -1.80061e-11 -1.85127e-10 -1.36796e-09 -8.57711e-09 1.90659e-10 1.19622e-10 -1.96959e-11 -1.3858e-11 -2.99218e-11 -7.5883e-10 -8.14663e-10
          -2.60922e-10 -2.84894e-09 -2.26026e-09 -2.59964e-09 -5.3534e-11 -3.68211e-10 -3.2222e-09 -1.60736e-08 6.95138e-11 4.18739e-11 5.91988e-12 -5.85357e-12
          -2.97678e-11 -9.604e-10 -6.28661e-10 -3.56333e-10 -2.97653e-09 -2.35318e-09 -6.60656e-09 -7.22418e-11 -6.1536e-10 -7.49688e-09 -2.77887e-08 3.19442e-10
          1.82548e-11 3.23612e-12 -6.96765e-12 -3.02873e-11 -1.06925e-09 -5.48549e-10 -4.60639e-10 -3.17019e-09 -1.68197e-09 -1.23323e-08 -2.50585e-10 -1.91479e-09
          -1.57617e-08 -5.06029e-08 -1.43975e-09 9.56424e-12 -1.55236e-13 -9.76921e-12 -3.79271e-11 -9.38162e-10 -6.38446e-10 -6.42596e-10 -4.10317e-09 -1.52531e-09
          -1.85863e-08 -1.106e-09 -8.22071e-09 -3.12974e-08 -9.00471e-08 -9.71059e-09 6.2645e-12 4.33406e-13 -9.16331e-12 -4.67589e-11 -5.30651e-10 -6.77735e-10
          -8.73648e-10 -5.85781e-09 -2.18268e-09 -2.51534e-08 -5.11892e-09 -2.87401e-08 -7.46468e-08 -1.67358e-07 -3.88893e-08 3.05987e-12 1.46577e-12 -2.22462e-13
          -1.15815e-11 -1.07218e-10 -3.06368e-10 -5.76676e-10 -4.11846e-09 -3.26289e-09 -2.04577e-08 -1.42369e-08 -3.39163e-08 -6.96638e-08 -1.14341e-07 -2.58941e-08
        </DataArray>
        <DataArray type="Float32" Name="z[0]" NumberOfComponents="1" format="ascii">
          0.150578 0.150579 0.15058 0.150582 0.150582 0.150583 0.150584 0.150585 0.150585 0.150586 0.150587 0.150588
          0.150589 0.150591 0.150596 0.150581 0.150582 0.150583 0.150585 0.150586 0.150587 0.150587 0.150588 0.150588
          0.150589 0.15059 0.150591 0.150593 0.150595 0.150599 0.150584 0.150585 0.150587 0.150588 0.150589 0.15059
          0.15059 0.150591 0.150592 0.150593 0.150593 0.150595 0.150596 0.150598 0.150602 0.150588 0.150589 0.15059
          0.150591 0.150592 0.150593 0.150594 0.150594 0.150595 0.150596 0.150597 0.150598 0.150599 0.150601 0.150605
          0.150591 0.150592 0.150593 0.150594 0.150595 0.150596 0.150597 0.150597 0.150598 0.150599 0.1506 0.150601
          0.150602 0.150604 0.150609 0.150594 0.150595 0.150596 0.150597 0.150598 0.150599 0.1506 0.1506 0.150601
          0.150602 0.150603 0.150604 0.150605 0.150607 0.150612 0.150597 0.150598 0.150599 0.150601 0.150601 0.150602