<?xml version="1.0"?>
<VTKFile type="UnstructuredGrid" version="0.1" byte_order="LittleEndian">
  <UnstructuredGrid>
    <Piece NumberOfCells="360" NumberOfPoints="800">
      <CellData Scalars="pressure[0]">
        <DataArray type="Float32" Name="pressure[0]" NumberOfComponents="1" format="ascii">
          2.11731e+07 2.11866e+07 2.19271e+07 2.26748e+07 2.30603e+07 2.34554e+07 2.35789e+07 2.36249e+07 2.36819e+07 2.37437e+07 2.39053e+07 2.41727e+07
          2.43719e+07 2.49503e+07 2.56621e+07 2.12251e+07 2.12502e+07 2.20576e+07 2.28365e+07 2.3239e+07 2.36348e+07 2.37253e+07 2.37614e+07 2.38195e+07
          2.38878e+07 2.41086e+07 2.43784e+07 2.45433e+07 2.51428e+07 2.5827e+07 2.1334e+07 2.13806e+07 2.21683e+07 2.29886e+07 2.33508e+07 2.37236e+07
          2.38318e+07 2.38828e+07 2.39559e+07 2.40456e+07 2.43398e+07 2.46444e+07 2.48138e+07 2.53782e+07 2.60335e+07 2.14623e+07 2.15088e+07 2.20113e+07
          2.3125e+07 2.34946e+07 2.3861e+07 2.39597e+07 2.40052e+07 2.41095e+07 2.42399e+07 2.46274e+07 2.49958e+07 2.517e+07 2.56588e+07 2.62885e+07
          2.1594e+07 2.1615e+07 1.9817e+07 2.32255e+07 2.37171e+07 2.40938e+07 2.4157e+07 2.41908e+07 2.43455e+07 2.4574e+07 2.49881e+07 2.53325e+07
          2.55141e+07 2.59745e+07 2.65397e+07 2.18029e+07 2.18457e+07 2.25634e+07 2.38086e+07 2.41184e+07 2.43588e+07 2.44009e+07 2.44351e+07 2.46333e+07
          2.49993e+07 2.54132e+07 2.5635e+07 2.58321e+07 2.62908e+07 2.68206e+07 2.20752e+07 2.21269e+07 2.33279e+07 2.4265e+07 2.44687e+07 2.46299e+07
          2.46706e+07 2.4704e+07 2.48937e+07 2.53923e+07 2.57988e+07 2.59025e+07 2.60915e+07 2.66326e+07 2.72091e+07 2.24696e+07 2.2526e+07 2.3705e+07
          2.45926e+07 2.47825e+07 2.4902e+07 2.49354e+07 2.49633e+07 2.51996e+07 2.5714e+07 2.60616e+07 2.61464e+07 2.63991e+07 2.69878e+07 2.77438e+07
          2.30413e+07 2.31054e+07 2.40313e+07 2.48507e+07 2.50876e+07 2.51851e+07 2.52152e+07 2.52419e+07 2.55718e+07 2.60882e+07 2.634e+07 2.63849e+07
          2.66424e+07 2.73931e+07 2.82795e+07 2.37236e+07 2.38321e+07 2.43158e+07 2.49451e+07 2.53633e+07 2.54486e+07 2.55479e+07 2.58165e+07 2.6088e+07
          2.64912e+07 2.66835e+07 2.67242e+07 2.7e+07 2.78054e+07 2.86017e+07 2.44706e+07 2.45854e+07 2.48561e+07 2.52722e+07 2.55973e+07 2.56605e+07
          2.5824e+07 2.63906e+07 2.66092e+07 2.68772e+07 2.70407e+07 2.70944e+07 2.73391e+07 2.81542e+07 2.88416e+07 2.52253e+07 2.52964e+07 2.54119e+07
          2.56365e+07 2.58259e+07 2.58669e+07 2.61023e+07 2.69808e+07 2.71252e+07 2.72828e+07 2.74096e+07 2.74832e+07 2.77487e+07 2.85117e+07 2.90987e+07
          2.57969e+07 2.58438e+07 2.58691e+07 2.60203e+07 2.61258e+07 2.61552e+07 2.64296e+07 2.75381e+07 2.76134e+07 2.77249e+07 2.78356e+07 2.79896e+07
          2.82632e+07 2.88678e+07 2.9374e+07 2.62548e+07 2.63027e+07 2.63258e+07 2.65099e+07 2.65913e+07 2.65557e+07 2.6862e+07 2.79912e+07 2.80233e+07
          2.81183e+07 2.821e+07 2.84624e+07 2.90329e+07 3.0089e+07 2.98508e+07 2.66284e+07 2.66637e+07 2.68527e+07 2.71944e+07 2.73366e+07 2.75226e+07
          2.77123e+07 2.84934e+07 2.85329e+07 2.85666e+07 2.86274e+07 2.90847e+07 3.03835e+07 3.06168e+07 3.0437e+07 2.69619e+07 2.70116e+07 2.73633e+07
          2.77815e+07 2.81399e+07 2.82304e+07 2.85688e+07 2.88616e+07 2.89141e+07 2.89956e+07 2.92973e+07 3.01488e+07 3.08444e+07 3.12314e+07 3.0996e+07
          2.73249e+07 2.7383e+07 2.78219e+07 2.82825e+07 2.872e+07 2.87746e+07 2.89459e+07 2.91028e+07 2.91537e+07 2.92211e+07 2.96885e+07 3.07507e+07
          3.14747e+07 3.18365e+07 3.15097e+07 2.81208e+07 2.81748e+07 2.83525e+07 2.88458e+07 2.90624e+07 2.91109e+07 2.92379e+07 2.93481e+07 2.94017e+07
          2.9463e+07 3.00564e+07 3.11975e+07 3.19373e+07 3.22219e+07 3.20242e+07 2.84604e+07 2.85252e+07 2.87409e+07 2.9139e+07 2.93485e+07 2.9398e+07
          2.95012e+07 2.95908e+07 2.96394e+07 2.9698e+07 3.0357e+07 3.16284e+07 3.23893e+07 3.25934e+07 3.27543e+07 2.87316e+07 2.8791e+07 2.90119e+07
          2.93944e+07 2.9588e+07 2.96376e+07 2.97331e+07 2.98137e+07 2.98627e+07 2.99295e+07 3.05847e+07 3.19927e+07 3.28325e+07 3.29865e+07 3.34482e+07
          2.8955e+07 2.90247e+07 2.92036e+07 2.9554e+07 2.97942e+07 2.98501e+07 2.99504e+07 3.00331e+07 3.01029e+07 3.01913e+07 3.11254e+07 3.26363e+07
          3.3241e+07 3.34062e+07 3.39818e+07 2.91676e+07 2.92407e+07 2.93997e+07 2.97422e+07 2.99871e+07 3.00497e+07 3.01656e+07 3.02596e+07 3.03536e+07
          3.04579e+07 3.17258e+07 3.32998e+07 3.36665e+07 3.38742e+07 3.45009e+07 2.9358e+07 2.94237e+07 2.96189e+07 2.99813e+07 3.01797e+07 3.02535e+07
          3.03905e+07 3.04999e+07 3.06243e+07 3.07575e+07 3.22305e+07 3.38422e+07 3.41552e+07 3.43916e+07 3.4862e+07 2.95285e+07 2.95904e+07 2.97599e+07
          3.01239e+07 3.03821e+07 3.0458e+07 3.0613e+07 3.07413e+07 3.08953e+07 3.10788e+07 3.27918e+07 3.43087e+07 3.46585e+07 3.48702e+07 3.51766e+07
        </DataArray>
        <DataArray type="Float32" Name="pressure[1]" NumberOfComponents="1" format="ascii">
          2.11731e+07 2.11866e+07 2.19271e+07 2.26748e+07 2.30603e+07 2.34554e+07 2.35789e+07 2.36249e+07 2.36819e+07 2.37437e+07 2.39053e+07 2.41727e+07
          2.43719e+07 2.49503e+07 2.56621e+07 2.12251e+07 2.12502e+07 2.20576e+07 2.28365e+07 2.3239e+07 2.36348e+07 2.37253e+07 2.37614e+07 2.38195e+07
          2.38878e+07 2.41086e+07 2.43784e+07 2.45433e+07 2.51428e+07 2.5827e+07 2.1334e+07 2.13806e+07 2.21683e+07 2.29886e+07 2.33508e+07 2.37236e+07
          2.38318e+07 2.38828e+07 2.39559e+07 2.40456e+07 2.43398e+07 2.46444e+07 2.48138e+07 2.53782e+07 2.60335e+07 2.14623e+07 2.15088e+07 2.20113e+07
          2.3125e+07 2.34946e+07 2.3861e+07 2.39597e+07 2.40052e+07 2.41095e+07 2.42399e+07 2.46274e+07 2.49958e+07 2.517e+07 2.56588e+07 2.62885e+07
          2.1594e+07 2.1615e+07 1.9817e+07 2.32255e+07 2.37171e+07 2.40938e+07 2.4157e+07 2.41908e+07 2.43455e+07 2.4574e+07 2.49881e+07 2.53325e+07
          2.55141e+07 2.59745e+07 2.65397e+07 2.18029e+07 2.18457e+07 2.25634e+07 2.38086e+07 2.41184e+07 2.43588e+07 2.44009e+07 2.44351e+07 2.46333e+07
          2.49993e+07 2.54132e+07 2.5635e+07 2.58321e+07 2.62908e+07 2.68206e+07 2.20752e+07 2.21269e+07 2.33279e+07 2.4265e+07 2.44687e+07 2.46299e+07
          2.46706e+07 2.4704e+07 2.48937e+07 2.53923e+07 2.57988e+07 2.59025e+07 2.60915e+07 2.66326e+07 2.72091e+07 2.24696e+07 2.2526e+07 2.3705e+07
          2.45926e+07 2.47825e+07 2.4902e+07 2.49354e+07 2.49633e+07 2.51996e+07 2.5714e+07 2.60616e+07 2.61464e+07 2.63991e+07 2.69878e+07 2.77438e+07
          2.30413e+07 2.31054e+07 2.40313e+07 2.48507e+07 2.50876e+07 2.51851e+07 2.52152e+07 2.52419e+07 2.55718e+07 2.60882e+07 2.634e+07 2.63849e+07
          2.66424e+07 2.73931e+07 2.82795e+07 2.37236e+07 2.38321e+07 2.43158e+07 2.49451e+07 2.53633e+07 2.54486e+07 2.55479e+07 2.58165e+07 2.6088e+07
          2.64912e+07 2.66835e+07 2.67242e+07 2.7e+07 2.78054e+07 2.86017e+07 2.44706e+07 2.45854e+07 2.48561e+07 2.52722e+07 2.55973e+07 2.56605e+07
          2.5824e+07 2.63906e+07 2.66092e+07 2.68772e+07 2.70407e+07 2.70944e+07 2.73391e+07 2.81542e+07 2.88416e+07 2.52253e+07 2.52964e+07 2.54119e+07
          2.56365e+07 2.58259e+07 2.58669e+07 2.61023e+07 2.69808e+07 2.71252e+07 2.72828e+07 2.74096e+07 2.74832e+07 2.77487e+07 2.85117e+07 2.90987e+07
          2.57969e+07 2.58438e+07 2.58691e+07 2.60203e+07 2.61258e+07 2.61552e+07 2.64296e+07 2.75381e+07 2.76134e+07 2.77249e+07 2.78356e+07 2.79896e+07
          2.82632e+07 2.88678e+07 2.9374e+07 2.62548e+07 2.63027e+07 2.63258e+07 2.65099e+07 2.65913e+07 2.65557e+07 2.6862e+07 2.79912e+07 2.80233e+07
          2.81183e+07 2.821e+07 2.84624e+07 2.90329e+07 3.0089e+07 2.98508e+07 2.66284e+07 2.66637e+07 2.68527e+07 2.71944e+07 2.73366e+07 2.75226e+07
          2.77123e+07 2.84934e+07 2.85329e+07 2.85666e+07 2.86274e+07 2.90847e+07 3.03835e+07 3.06168e+07 3.0437e+07 2.69619e+07 2.70116e+07 2.73633e+07
          2.77815e+07 2.81399e+07 2.82304e+07 2.85688e+07 2.88616e+07 2.89141e+07 2.89956e+07 2.92973e+07 3.01488e+07 3.08444e+07 3.12314e+07 3.0996e+07
          2.73249e+07 2.7383e+07 2.78219e+07 2.82825e+07 2.872e+07 2.87746e+07 2.89459e+07 2.91028e+07 2.91537e+07 2.92211e+07 2.96885e+07 3.07507e+07
          3.14747e+07 3.18365e+07 3.15097e+07 2.81208e+07 2.81748e+07 2.83525e+07 2.88458e+07 2.90624e+07 2.91109e+07 2.92379e+07 2.93481e+07 2.94017e+07
          2.9463e+07 3.00564e+07 3.11975e+07 3.19373e+07 3.22219e+07 3.20242e+07 2.84604e+07 2.85252e+07 2.87409e+07 2.9139e+07 2.93485e+07 2.9398e+07
          2.95012e+07 2.95908e+07 2.96394e+07 2.9698e+07 3.0357e+07 3.16284e+07 3.23893e+07 3.25934e+07 3.27543e+07 2.87316e+07 2.8791e+07 2.90119e+07
          2.93944e+07 2.9588e+07 2.96376e+07 2.97331e+07 2.98137e+07 2.98627e+07 2.99295e+07 3.05847e+07 3.19927e+07 3.28325e+07 3.29865e+07 3.34482e+07
          2.8955e+07 2.90247e+07 2.92036e+07 2.9554e+07 2.97942e+07 2.98501e+07 2.99504e+07 3.00331e+07 3.01029e+07 3.01913e+07 3.11254e+07 3.26363e+07
          3.3241e+07 3.34062e+07 3.39818e+07 2.91676e+07 2.92407e+07 2.93997e+07 2.97422e+07 2.99871e+07 3.00497e+07 3.01656e+07 3.02596e+07 3.03536e+07
          3.04579e+07 3.17258e+07 3.32998e+07 3.36665e+07 3.38742e+07 3.45009e+07 2.9358e+07 2.94237e+07 2.96189e+07 2.99813e+07 3.01797e+07 3.02535e+07
          3.03905e+07 3.04999e+07 3.06243e+07 3.07575e+07 3.22305e+07 3.38422e+07 3.41552e+07 3.43916e+07 3.4862e+07 2.95285e+07 2.95904e+07 2.97599e+07
          3.01239e+07 3.03821e+07 3.0458e+07 3.0613e+07 3.07413e+07 3.08953e+07 3.10788e+07 3.27918e+07 3.43087e+07 3.46585e+07 3.48702e+07 3.51766e+07
        </DataArray>
        <DataArray type="Float32" Name="pressure[2]" NumberOfComponents="1" format="ascii">
          2.11731e+07 2.11866e+07 2.19271e+07 2.26748e+07 2.30603e+07 2.34554e+07 2.35789e+07 2.36249e+07 2.36819e+07 2.37437e+07 2.39053e+07 2.41727e+07
          2.43719e+07 2.49503e+07 2.56621e+07 2.12251e+07 2.12502e+07 2.20576e+07 2.28365e+07 2.3239e+07 2.36348e+07 2.37253e+07 2.37614e+07 2.38195e+07
          2.38878e+07 2.41086e+07 2.43784e+07 2.45433e+07 2.51428e+07 2.5827e+07 2.1334e+07 2.13806e+07 2.21683e+07 2.29886e+07 2.33508e+07 2.37236e+07
          2.38318e+07 2.38828e+07 2.39559e+07 2.40456e+07 2.43398e+07 2.46444e+07 2.48138e+07 2.53782e+07 2.60335e+07 2.14623e+07 2.15088e+07 2.20113e+07
          2.3125e+07 2.34946e+07 2.3861e+07 2.39597e+07 2.40052e+07 2.41095e+07 2.42399e+07 2.46274e+07 2.49958e+07 2.517e+07 2.56588e+07 2.62885e+07
          2.1594e+07 2.1615e+07 1.9817e+07 2.32255e+07 2.37171e+07 2.40938e+07 2.4157e+07 2.41908e+07 2.43455e+07 2.4574e+07 2.49881e+07 2.53325e+07
          2.55141e+07 2.59745e+07 2.65397e+07 2.18029e+07 2.18457e+07 2.25634e+07 2.38086e+07 2.41184e+07 2.43588e+07 2.44009e+07 2.44351e+07 2.46333e+07
          2.49993e+07 2.54132e+07 2.5635e+07 2.58321e+07 2.62908e+07 2.68206e+07 2.20752e+07 2.21269e+07 2.33279e+07 2.4265e+07 2.44687e+07 2.46299e+07
          2.46706e+07 2.4704e+07 2.48937e+07 2.53923e+07 2.57988e+07 2.59025e+07 2.60915e+07 2.66326e+07 2.72091e+07 2.24696e+07 2.2526e+07 2.3705e+07
          2.45926e+07 2.47825e+07 2.4902e+07 2.49354e+07 2.49633e+07 2.51996e+07 2.5714e+07 2.60616e+07 2.61464e+07 2.63991e+07 2.69878e+07 2.77438e+07
          2.30413e+07 2.31054e+07 2.40313e+07 2.48507e+07 2.50876e+07 2.51851e+07 2.52152e+07 2.52419e+07 2.55718e+07 2.60882e+07 2.634e+07 2.63849e+07
          2.66424e+07 2.73931e+07 2.82795e+07 2.37236e+07 2.38321e+07 2.43158e+07 2.49451e+07 2.53633e+07 2.54486e+07 2.55479e+07 2.58165e+07 2.6088e+07
          2.64912e+07 2.66835e+07 2.67242e+07 2.7e+07 2.78054e+07 2.86017e+07 2.44706e+07 2.45854e+07 2.48561e+07 2.52722e+07 2.55973e+07 2.56605e+07
          2.5824e+07 2.63906e+07 2.66092e+07 2.68772e+07 2.70407e+07 2.70944e+07 2.73391e+07 2.81542e+07 2.88416e+07 2.52253e+07 2.52964e+07 2.54119e+07
          2.56365e+07 2.58259e+07 2.58669e+07 2.61023e+07 2.69808e+07 2.71252e+07 2.72828e+07 2.74096e+07 2.74832e+07 2.77487e+07 2.85117e+07 2.90987e+07
          2.57969e+07 2.58438e+07 2.58691e+07 2.60203e+07 2.61258e+07 2.61552e+07 2.64296e+07 2.75381e+07 2.76134e+07 2.77249e+07 2.78356e+07 2.79896e+07
          2.82632e+07 2.88678e+07 2.9374e+07 2.62548e+07 2.63027e+07 2.63258e+07 2.65099e+07 2.65913e+07 2.65557e+07 2.6862e+07 2.79912e+07 2.80233e+07
          2.81183e+07 2.821e+07 2.84624e+07 2.90329e+07 3.0089e+07 2.98508e+07 2.66284e+07 2.66637e+07 2.68527e+07 2.71944e+07 2.73366e+07 2.75226e+07
          2.77123e+07 2.84934e+07 2.85329e+07 2.85666e+07 2.86274e+07 2.90847e+07 3.03835e+07 3.06168e+07 3.0437e+07 2.69619e+07 2.70116e+07 2.73633e+07
          2.77815e+07 2.81399e+07 2.82304e+07 2.85688e+07 2.88616e+07 2.89141e+07 2.89956e+07 2.92973e+07 3.01488e+07 3.08444e+07 3.12314e+07 3.0996e+07
          2.73249e+07 2.7383e+07 2.78219e+07 2.82825e+07 2.872e+07 2.87746e+07 2.89459e+07 2.91028e+07 2.91537e+07 2.92211e+07 2.96885e+07 3.07507e+07
          3.14747e+07 3.18365e+07 3.15097e+07 2.81208e+07 2.81748e+07 2.83525e+07 2.88458e+07 2.90624e+07 2.91109e+07 2.92379e+07 2.93481e+07 2.94017e+07
          2.9463e+07 3.00564e+07 3.11975e+07 3.19373e+07 3.22219e+07 3.20242e+07 2.84604e+07 2.85252e+07 2.87409e+07 2.9139e+07 2.93485e+07 2.9398e+07
          2.95012e+07 2.95908e+07 2.96394e+07 2.9698e+07 3.0357e+07 3.16284e+07 3.23893e+07 3.25934e+07 3.27543e+07 2.87316e+07 2.8791e+07 2.90119e+07
          2.93944e+07 2.9588e+07 2.96376e+07 2.97331e+07 2.98137e+07 2.98627e+07 2.99295e+07 3.05847e+07 3.19927e+07 3.28325e+07 3.29865e+07 3.34482e+07
          2.8955e+07 2.90247e+07 2.92036e+07 2.9554e+07 2.97942e+07 2.98501e+07 2.99504e+07 3.00331e+07 3.01029e+07 3.01913e+07 3.11254e+07 3.26363e+07
          3.3241e+07 3.34062e+07 3.39818e+07 2.91676e+07 2.92407e+07 2.93997e+07 2.97422e+07 2.99871e+07 3.00497e+07 3.01656e+07 3.02596e+07 3.03536e+07
          3.04579e+07 3.17258e+07 3.32998e+07 3.36665e+07 3.38742e+07 3.45009e+07 2.9358e+07 2.94237e+07 2.96189e+07 2.99813e+07 3.01797e+07 3.02535e+07
          3.03905e+07 3.04999e+07 3.06243e+07 3.07575e+07 3.22305e+07 3.38422e+07 3.41552e+07 3.43916e+07 3.4862e+07 2.95285e+07 2.95904e+07 2.97599e+07
          3.01239e+07 3.03821e+07 3.0458e+07 3.0613e+07 3.07413e+07 3.08953e+07 3.10788e+07 3.27918e+07 3.43087e+07 3.46585e+07 3.48702e+07 3.51766e+07
        </DataArray>
        <DataArray type="Float32" Name="velocity[0]" NumberOfComponents="1" format="ascii">
          -2.37302e-08 7.41645e-08 3.04043e-11 -6.16383e-09 -3.7151e-10 -1.58678e-09 -9.64291e-10 8.53326e-10 1.30877e-09 -5.29776e-10 -1.76665e-09 -2.3657e-09
          -1.65679e-09 -5.6318e-10 -2.4828e-09 -3.14777e-08 1.62206e-07 1.30689e-10 -2.40591e-08 -7.69633e-11 1.22117e-09 6.19004e-09 4.30331e-09 2.59326e-09
          -2.73337e-09 -3.69447e-09 -1.02097e-08 -6.27324e-09 -1.65466e-09 -6.58117e-09 -1.38172e-08 1.8589e-07 1.07862e-09 -3.26666e-09 2.43581e-10 3.14987e-09
          9.70335e-09 6.83926e-09 -2.87321e-11 -6.43934e-09 -4.33084e-09 -2.5731e-08 -9.0394e-09 -3.49744e-09 -9.86721e-09 -1.03385e-08 2.0076e-07 8.05788e-09
          8.4773e-08 -2.54308e-09 -1.41407e-08 -1.58087e-08 -9.20155e-09 -5.76543e-09 -1.31334e-08 -5.49274e-09 -4.38602e-08 -6.46856e-09 -5.13165e-09 -1.34844e-08
          -9.74831e-08 -3.45545e-08 -3.07791e-10 -1.46897e-07 -1.81166e-08 -7.24002e-08 -8.18855e-08 -6.91859e-08 -7.5053e-09 -1.3e-08 -7.66822e-09 -7.30261e-08
          -3.1949e-09 -4.68454e-09 -1.66494e-08 -1.96218e-07 -2.48978e-07 -9.12214e-09 -3.00603e-07 -3.7354e-08 -2.11179e-07 -1.17694e-07 -1.79857e-07 -4.76478e-09
          -5.61255e-09 -1.12938e-08 -1.04892e-07 -1.84561e-09 -3.71929e-09 -1.87987e-08 -1.96264e-07 -2.13721e-07 -2.6236e-09 -9.66745e-08 -3.42729e-08 -3.61753e-07
          -9.47639e-08 -3.06271e-07 -3.52532e-09 -2.34909e-09 -1.36907e-08 -1.26433e-07 -1.6194e-09 -3.68003e-09 -2.03075e-08 -1.76868e-07 -1.92355e-07 -1.97781e-09
          -1.55499e-08 -2.0758e-08 -4.3755e-07 -5.68419e-08 -3.87096e-07 -3.46931e-09 -1.92347e-09 -1.56381e-08 -1.42371e-07 -1.35816e-09 -3.8233e-09 -2.2023e-08
          -1.58527e-07 -1.69836e-07 -2.39333e-09 -2.05035e-09 -1.47855e-08 -4.80356e-07 -2.35958e-08 -3.97243e-07 -3.58272e-09 -2.39613e-09 -2.73391e-08 -1.40037e-07
          -1.30998e-09 -3.48981e-09 -2.42866e-08 -1.28596e-07 -1.56446e-07 -8.84372e-09 -4.64575e-10 -1.15893e-08 -4.89495e-07 -9.36153e-09 -4.29562e-07 -4.46033e-09
          -2.88475e-09 -4.77812e-08 -1.2197e-07 -2.18228e-09 -2.98018e-09 -2.65564e-08 -9.40766e-08 -1.49988e-07 -2.01039e-08 -1.40022e-09 -1.11044e-08 -4.63479e-07
          -3.08571e-09 -4.90159e-07 -1.05001e-08 -4.27851e-09 -6.15343e-08 -1.02736e-07 -6.00822e-09 -3.42302e-09 -2.86207e-08 -7.50748e-08 -1.43076e-07 -2.78253e-08
          -1.13372e-09 -1.76631e-08 -4.3241e-07 -2.40395e-09 -4.40436e-07 -4.77497e-08 -8.46313e-09 -6.50955e-08 -7.80503e-08 -2.10914e-08 -6.09467e-09 -3.08902e-08
          -6.93918e-08 -1.46256e-07 -2.455e-08 -2.23804e-09 -3.02256e-08 -3.67668e-07 -3.53811e-09 -3.18601e-07 -1.2374e-07 -1.51352e-08 -5.3984e-08 -3.97695e-08
          -4.14557e-08 -1.5321e-08 -3.48023e-08 -6.90931e-08 -1.56522e-07 -1.43404e-08 -5.76246e-09 -6.6398e-08 -2.66355e-07 -7.15334e-09 -3.17396e-07 -1.26536e-07
          -4.70004e-08 -4.20739e-08 -1.31371e-08 -4.73876e-08 -3.32982e-08 -3.6233e-08 -7.6301e-08 -1.4326e-07 -8.57971e-09 -9.33648e-09 -7.41177e-08 -2.31697e-07
          -6.42176e-09 -3.94472e-07 -9.48445e-08 -5.44093e-08 -3.14463e-08 -1.05342e-08 -4.47347e-08 -5.35326e-08 -3.30045e-08 -8.20711e-08 -1.13453e-07 -7.31385e-09
          -1.40926e-08 -4.97062e-08 -2.55266e-07 -3.29862e-09 -3.81754e-07 -1.07346e-07 -3.52882e-08 -1.34636e-08 -1.06601e-08 -4.84384e-08 -7.8338e-08 -2.8142e-08
          -7.46033e-08 -7.9441e-08 -1.0259e-08 -1.68563e-08 -6.5412e-08 -2.34534e-07 -4.27527e-09 -3.17014e-07 -1.1169e-07 -5.201e-08 -4.64167e-09 -6.77667e-09
          -3.79325e-08 -1.14805e-07 -2.25377e-08 -6.81359e-08 -4.83794e-08 -9.56272e-09 -9.71915e-09 -1.00042e-07 -1.75324e-07 -5.81705e-09 -2.53108e-07 -1.2651e-07
          -8.32068e-08 -3.06028e-09 -4.24298e-09 -2.38732e-08 -1.48787e-07 -1.76796e-08 -6.33034e-08 -3.18023e-08 -4.89758e-09 -2.71235e-09 -1.20298e-07 -1.12461e-07
          -6.15946e-09 -1.89498e-07 -1.3144e-07 -1.36927e-07 -1.77432e-09 -3.43036e-09 -3.07187e-08 -1.69159e-07 -1.55369e-08 -5.41434e-08 -2.21727e-08 -2.41196e-09
          -9.92143e-10 -1.24202e-07 -6.27636e-08 -5.09677e-09 -1.41421e-07 -8.70862e-08 -2.44632e-07 -3.13091e-09 -4.84016e-09 -4.5584e-08 -1.78789e-07 -1.67651e-08
          -4.18726e-08 -1.48544e-08 -1.78059e-09 -2.55006e-10 -1.13151e-07 -3.20847e-08 -4.32417e-09 -1.12626e-07 -3.70933e-08 -3.43788e-07 -4.92556e-09 -8.90391e-09
          -5.55194e-08 -1.86351e-07 -1.92972e-08 -2.64397e-08 -7.59665e-09 -2.57745e-09 -9.97894e-10 -8.25894e-08 -2.14767e-08 -4.23812e-09 -1.08397e-07 -2.03759e-08
          -3.65592e-07 -4.51077e-09 -1.71674e-08 -6.07154e-08 -1.94093e-07 -2.39593e-08 -1.23659e-08 -3.0425e-09 -1.1514e-09 -6.56462e-10 -4.09008e-08 -1.59309e-08
          -3.49618e-09 -1.15848e-07 -1.65494e-08 -3.16085e-07 -6.26959e-09 -2.96291e-08 -7.92472e-08 -2.01813e-07 -3.12797e-08 -3.27867e-09 -6.85193e-10 2.48908e-10
          9.00228e-11 -9.59091e-09 -6.0628e-09 -1.28312e-09 -5.92986e-08 -7.72893e-09 -1.36876e-07 -4.13609e-09 -1.79732e-08 -4.72188e-08 -1.03616e-07 -1.75602e-08
        </DataArray>
        <DataArray type="Float32" Name="velocity[1]" NumberOfComponents="1" format="ascii">
          3.68795e-24 1.17167e-23 1.53182e-25 -9.57931e-25 5.77371e-26 0 1.49862e-25 -7.09663e-26 9.4303e-26 5.23547e-24 -3.45658e-24 6.20504e-26
          2.21395e-24 -8.59224e-25 3.86053e-25 -2.48389e-24 1.98928e-24 1.49683e-25 -1.8232e-24 -2.27651e-25 7.43386e-24 9.1033e-25 1.5835e-25 -6.99734e-24
          -2.08017e-25 0 -5.62219e-26 5.33449e-26 1.25854e-28 2.5108e-25 -2.60769e-25 -1.02156e-23 -2.00023e-24 5.05459e-24 -2.51311e-25 0
          5.91322e-25 -5.81733e-26 -4.03717e-25 0 6.40939e-24 -9.98289e-24 0 1.0375e-24 -2.59141e-25 -4.97884e-25 1.41702e-23 -1.76492e-24
          -8.42852e-24 5.71812e-25 1.11586e-23 -1.98062e-23 2.55389e-23 -3.28971e-24 1.07853e-24 3.05071e-24 -4.07047e-24 2.85011e-24 -1.209e-24 9.0735e-25
          -1.41531e-25 -7.4715e-23 6.96252e-24 1.29862e-23 -5.54039e-25 -7.1804e-24 2.06877e-25 -1.37858e-25 -9.00284e-27 -5.47054e-24 3.63762e-24 -6.55261e-24
          5.05495e-29 1.19319e-25 -1.38842e-24 -1.82536e-25 8.06702e-24 -7.32621e-25 9.67623e-24 2.49967e-25 -1.54115e-23 0 -2.01676e-25 7.53948e-27
          4.02189e-25 -3.3211e-25 4.99938e-24 -1.35788e-24 8.03476e-25 1.38925e-24 -1.32455e-24 1.73397e-24 0 1.13975e-23 -1.24423e-24 -2.49193e-23
          -2.01103e-25 -1.33943e-25 -2.54749e-24 3.86349e-28 1.8693e-28 -1.22894e-28 3.49403e-26 3.91364e-28 -1.53312e-24 -2.24642e-25 1.41838e-23 1.7348e-24
          3.1515e-24 -1.28021e-25 2.92097e-23 -1.90956e-27 -2.16781e-27 4.69673e-26 -3.84147e-26 -3.20965e-24 -1.05804e-23 3.84878e-28 -3.48734e-25 1.79972e-24
          -1.5757e-24 -9.56896e-24 -1.17629e-25 -2.23309e-24 -2.54409e-25 1.01929e-25 0 0 -1.18582e-24 -2.08914e-28 1.09587e-24 2.33635e-24
          9.72682e-28 5.05732e-26 9.64969e-28 -1.16432e-23 7.24736e-25 1.48271e-24 -1.91564e-25 -2.46848e-24 4.85723e-24 -9.32504e-24 6.72117e-24 1.06306e-24
          -3.90061e-26 -9.86343e-25 2.61014e-24 -8.07106e-25 0 -1.9747e-24 4.40403e-24 8.25123e-26 7.80956e-25 -1.31624e-25 1.87779e-24 2.02863e-27
          -6.88604e-24 5.39357e-24 8.37788e-25 1.74149e-25 7.96106e-25 7.01206e-24 2.00706e-24 -2.83892e-25 1.41946e-25 -5.38908e-24 1.05146e-24 -4.19811e-25
          -1.25472e-26 -6.23114e-26 -3.21878e-23 3.9147e-26 -1.04222e-23 -4.2649e-24 -4.72771e-25 -1.52103e-24 4.05376e-24 -1.83125e-24 1.04893e-24 -2.08533e-25
          5.39477e-24 1.08554e-23 0 -1.65938e-25 1.09834e-24 7.24513e-24 1.35236e-25 -8.51086e-24 -6.86519e-24 1.35395e-27 -3.31384e-24 -1.35901e-24
          1.34766e-24 -6.31382e-25 -1.20235e-27 -5.25709e-26 7.85297e-28 3.66803e-25 -7.63349e-25 -1.97383e-27 2.98481e-23 4.23932e-25 8.32492e-24 1.83922e-23
          -8.01899e-24 3.31308e-24 3.86537e-24 -6.77065e-24 1.84447e-27 -2.72633e-24 -5.34224e-24 -9.81367e-24 -4.37484e-29 6.38676e-25 -3.32287e-24 5.98232e-28
          -5.38432e-25 3.13523e-24 2.31744e-25 0 0 6.8265e-25 5.51366e-24 -8.1238e-25 5.13066e-24 0 1.99662e-24 0
          -1.37783e-24 -4.6979e-25 3.36805e-28 5.30605e-26 -5.63111e-24 1.33586e-27 7.05485e-28 6.19549e-28 4.8605e-24 2.01136e-27 -1.52456e-24 -2.4005e-24
          -2.45173e-28 3.28927e-24 4.80536e-28 1.35093e-25 2.91255e-24 -1.17421e-23 0 -1.23815e-23 0 -2.49541e-28 3.37582e-24 -4.22408e-24
          -2.19301e-24 -3.99346e-28 1.53087e-24 0 4.52838e-24 0 1.24267e-24 3.36425e-24 4.41152e-24 1.39726e-25 -5.50129e-24 -5.53162e-24
          -2.51619e-24 2.10782e-25 8.71892e-26 6.47435e-28 -1.99893e-24 -1.21675e-24 4.6038e-24 -1.88263e-24 2.37056e-24 -2.23112e-24 6.78572e-25 1.09058e-23
          -8.64133e-26 -4.38429e-24 1.0862e-23 6.17967e-24 -3.71794e-24 8.28694e-26 1.05492e-24 -4.10953e-29 1.19787e-24 6.13585e-28 -4.06832e-24 8.74116e-25
          -1.9961e-24 -1.43119e-25 -3.39199e-24 -1.56252e-25 -6.17451e-24 -5.59948e-24 1.09074e-23 3.05365e-25 4.00024e-24 1.25615e-24 -4.18668e-25 -9.88118e-25
          -1.11395e-24 6.8003e-25 0 -3.72967e-26 -1.64616e-24 5.3792e-24 -9.45496e-24 9.45754e-24 -6.61604e-24 8.44222e-28 0 0
          2.88108e-25 -5.37297e-28 1.59138e-24 -1.28451e-24 -1.34874e-24 1.24745e-24 -2.10481e-24 -1.20241e-24 -1.53243e-24 2.69264e-26 7.30559e-25 -4.32449e-24
          1.53622e-23 -2.94223e-25 -7.34282e-24 5.19126e-25 1.08228e-24 4.39149e-28 -9.02006e-25 -7.05094e-28 -8.56151e-28 1.27573e-25 -3.37629e-24 5.92534e-25
          -1.44524e-25 1.17638e-23 -4.86886e-24 0 -3.11225e-25 -9.81467e-25 7.45263e-24 -8.43008e-25 0 -5.10291e-25 -7.88632e-28 -4.17526e-25
          7.08172e-25 -1.48954e-24 -2.46595e-24 -4.00971e-25 -3.05101e-24 1.20117e-24 -3.33204e-23 0 3.34056e-23 -2.4605e-23 2.04054e-23 5.12025e-25
        </DataArray>
        <DataArray type="Float32" Name="velocity[2]" NumberOfComponents="1" format="ascii">
          -2.57942e-09 1.26408e-08 -3.99562e-09 -4.63839e-09 -3.18301e-09 -3.21716e-09 -2.94826e-09 -2.59364e-09 -2.56763e-09 -2.88697e-09 -2.91087e-09 -2.70339e-09
          -2.27356e-09 -1.84773e-09 -1.26498e-09 -6.58888e-09 2.58857e-08 -3.25617e-09 -6.79798e-09 -1.91582e-09 -1.84836e-09 -1.33711e-09 -1.92492e-09 -2.24766e-09
          -3.05567e-09 -3.08831e-09 -3.84364e-09 -2.57892e-09 -1.45613e-09 -1.69857e-09 -2.52021e-09 3.21371e-08 -9.38879e-10 -3.27823e-09 -4.148e-09 -3.40939e-09
          -1.95427e-09 -2.30193e-09 -3.3063e-09 -4.13225e-09 -3.58863e-09 -6.68205e-09 -3.13216e-09 -1.9485e-09 -2.29624e-09 -1.91621e-09 3.49604e-08 2.84961e-10
          1.06536e-08 -7.24669e-09 -8.3565e-09 -7.32659e-09 -5.13743e-09 -3.86152e-09 -4.71433e-09 -3.08772e-09 -9.30404e-09 -2.38513e-09 -2.25453e-09 -3.02558e-09
          -1.11991e-08 1.26608e-09 -1.19939e-09 -3.51087e-08 -1.57829e-08 -2.24679e-08 -2.08089e-08 -1.61324e-08 -4.09922e-09 -5.27735e-09 -4.41172e-09 -1.45771e-08
          -1.05829e-09 -1.5087e-09 -3.34116e-09 -3.38688e-08 -4.36674e-08 -3.00211e-09 -6.13366e-08 -2.1039e-08 -4.67402e-08 -2.59308e-08 -3.52935e-08 -2.64825e-09
          -2.94295e-09 -3.91292e-09 -1.96348e-08 -8.47369e-10 -1.24139e-09 -3.62429e-09 -3.51761e-08 -3.9195e-08 -2.35043e-09 -2.23913e-08 -1.52651e-08 -7.07767e-08
          -2.13637e-08 -5.73704e-08 -2.36351e-09 -2.17627e-09 -4.18653e-09 -2.3405e-08 -7.35756e-10 -1.05802e-09 -3.77239e-09 -3.17349e-08 -3.55092e-08 -2.35974e-09
          -5.15698e-09 -6.74246e-09 -7.94629e-08 -1.20195e-08 -7.03409e-08 -2.14143e-09 -1.86803e-09 -4.16974e-09 -2.60994e-08 -9.55805e-10 -1.42636e-09 -4.26107e-09
          -2.84309e-08 -3.13308e-08 -2.16817e-09 -2.18294e-09 -4.65629e-09 -8.5785e-08 -4.45623e-09 -7.08578e-08 -1.72991e-09 -1.49514e-09 -5.24952e-09 -2.4935e-08
          -8.99359e-10 -1.30813e-09 -4.65495e-09 -2.40199e-08 -3.0335e-08 -3.7906e-09 -1.67337e-09 -3.65531e-09 -8.86192e-08 -4.70863e-09 -7.7793e-08 -1.64529e-09
          -1.32262e-09 -8.56909e-09 -2.16239e-08 -1.1058e-09 -1.25075e-09 -5.0618e-09 -1.7447e-08 -2.8314e-08 -5.12487e-09 -1.40595e-09 -3.07486e-09 -8.33884e-08
          -2.8327e-09 -8.82821e-08 -2.91475e-09 -1.44812e-09 -1.12891e-08 -1.88652e-08 -2.1042e-09 -1.31745e-09 -5.35124e-09 -1.36194e-08 -2.61607e-08 -5.77339e-09
          -8.30855e-10 -3.45044e-09 -7.71375e-08 -2.15285e-09 -8.1174e-08 -1.18105e-08 -2.85313e-09 -1.27029e-08 -1.59328e-08 -6.07006e-09 -2.30786e-09 -5.89425e-09
          -1.22333e-08 -2.54554e-08 -4.18322e-09 -7.12731e-10 -5.21696e-09 -6.65152e-08 -4.45658e-09 -6.14492e-08 -2.5899e-08 -3.95398e-09 -1.13789e-08 -1.09283e-08
          -1.19841e-08 -5.59942e-09 -6.98511e-09 -1.22035e-08 -2.74545e-08 -2.56992e-09 -1.30189e-09 -1.03166e-08 -4.65697e-08 -3.35224e-09 -5.65466e-08 -2.39526e-08
          -1.12839e-08 -9.32179e-09 -4.51735e-09 -1.10019e-08 -6.90696e-09 -6.00874e-09 -1.29512e-08 -2.51028e-08 -2.33386e-09 -2.54348e-09 -1.50511e-08 -4.30413e-08
          -2.47363e-09 -7.03649e-08 -1.63223e-08 -9.4451e-09 -6.86759e-09 -3.71393e-09 -9.63547e-09 -9.60864e-09 -5.1185e-09 -1.45901e-08 -2.08841e-08 -2.7882e-09
          -3.77955e-09 -1.00395e-08 -4.62848e-08 -1.68209e-09 -6.93739e-08 -2.17847e-08 -8.84172e-09 -5.42657e-09 -5.53161e-09 -1.20479e-08 -1.45203e-08 -4.03703e-09
          -1.35346e-08 -1.58255e-08 -4.4519e-09 -5.42654e-09 -1.30335e-08 -4.29875e-08 -3.49935e-09 -5.93889e-08 -2.38522e-08 -1.26409e-08 -3.74879e-09 -4.31817e-09
          -1.08892e-08 -2.18667e-08 -3.02581e-09 -1.20665e-08 -9.12974e-09 -3.07388e-09 -3.70873e-09 -1.90957e-08 -3.31503e-08 -4.88041e-09 -4.93895e-08 -2.72222e-08
          -1.81427e-08 -3.40569e-09 -3.6741e-09 -7.14862e-09 -2.70277e-08 -2.44142e-09 -1.14311e-08 -6.48242e-09 -2.18571e-09 -1.94913e-09 -2.24882e-08 -2.21756e-08
          -4.74795e-09 -3.78442e-08 -2.88599e-08 -2.88271e-08 -3.53258e-09 -3.89543e-09 -8.28734e-09 -3.09954e-08 -2.6974e-09 -9.88595e-09 -4.73734e-09 -1.50514e-09
          -1.40934e-09 -2.32096e-08 -1.34189e-08 -4.28207e-09 -2.88639e-08 -2.19736e-08 -4.91081e-08 -3.59166e-09 -3.65201e-09 -1.01813e-08 -3.27775e-08 -3.40493e-09
          -7.86165e-09 -3.79458e-09 -1.65902e-09 -1.32876e-09 -2.17894e-08 -8.47394e-09 -4.00052e-09 -2.33435e-08 -1.1102e-08 -6.48624e-08 -3.96111e-09 -4.54632e-09
          -1.25155e-08 -3.45543e-08 -3.79614e-09 -5.2135e-09 -2.58649e-09 -1.82692e-09 -1.50516e-09 -1.69334e-08 -7.30415e-09 -4.34117e-09 -2.25777e-08 -7.09579e-09
          -6.84201e-08 -5.05116e-09 -6.9295e-09 -1.4017e-08 -3.69288e-08 -5.38443e-09 -2.56807e-09 -1.39542e-09 -1.28919e-09 -1.38754e-09 -9.68483e-09 -6.61839e-09
          -4.62864e-09 -2.43916e-08 -6.87456e-09 -6.14512e-08 -8.38565e-09 -1.19981e-08 -1.93553e-08 -3.90508e-08 -6.79584e-09 -7.97037e-10 -5.93132e-10 -4.41859e-10
          -4.44705e-10 -2.65954e-09 -2.83257e-09 -2.30745e-09 -1.41532e-08 -7.10547e-09 -3.58154e-08 -1.53652e-08 -1.3488e-08 -1.54412e-08 -2.16761e-08 -3.64555e-09
        </DataArray>
        <DataArray type="Float32" Name="z[0]" NumberOfComponents="1" format="ascii">
          0.150578 0.150579 0.15058 0.150582 0.150582 0.150583 0.150584 0.150585 0.150585 0.150586 0.150587 0.150588
          0.150589 0.150591 0.150596 0.150581 0.150582 0.150583 0.150585 0.150586 0.150587 0.150587 0.150588 0.150588
          0.150589 0.15059 0.150591 0.150593 0.150595 0.150599 0.150584 0.150585 0.150587 0.150588 0.150589 0.15059
          0.15059 0.150591 0.150592 0.150593 0.150593 0.150595 0.150596 0.150598 0.150602 0.150588 0.150589 0.15059
          0.150591 0.150592 0.150593 0.150594 0.150594 0.150595 0.150596 0.150597 0.150598 0.150599 0.150601 0.150605
          0.150591 0.150592 0.150593 0.150594 0.150595 0.150596 0.150597 0.150597 0.150598 0.150599 0.1506 0.150601
          0.150602 0.150604 0.150609 0.150594 0.150595 0.150596 0.150597 0.150598 0.150599 0.1506 0.1506 0.150601
          0.150602 0.150603 0.150604 0.150605 0.150607 0.150612 0.150597 0.150598 0.150599 0.150601 0.150601 0.150602