<?xml version="1.0"?>
<VTKFile type="UnstructuredGrid" version="0.1" byte_order="LittleEndian">
  <UnstructuredGrid>
    <Piece NumberOfCells="360" NumberOfPoints="800">
      <CellData Scalars="pressure[0]">
        <DataArray type="Float32" Name="pressure[0]" NumberOfComponents="1" format="ascii">
          2.101e+07 2.10245e+07 2.15926e+07 2.21856e+07 2.25559e+07 2.29854e+07 2.31203e+07 2.31704e+07 2.32308e+07 2.32985e+07 2.34945e+07 2.38185e+07
          2.40593e+07 2.46998e+07 2.54603e+07 2.10541e+07 2.10686e+07 2.16967e+07 2.23192e+07 2.27283e+07 2.31629e+07 2.3262e+07 2.33011e+07 2.33636e+07
          2.34408e+07 2.37144e+07 2.40424e+07 2.42369e+07 2.48946e+07 2.56273e+07 2.10988e+07 2.11127e+07 2.17663e+07 2.24627e+07 2.28239e+07 2.32306e+07
          2.33498e+07 2.34081e+07 2.34902e+07 2.35986e+07 2.39695e+07 2.43433e+07 2.45342e+07 2.51415e+07 2.584e+07 2.11647e+07 2.12071e+07 2.16349e+07
          2.25964e+07 2.29452e+07 2.3333e+07 2.34407e+07 2.34943e+07 2.36248e+07 2.3799e+07 2.42963e+07 2.47212e+07 2.49088e+07 2.5436e+07 2.6106e+07
          2.12959e+07 2.132e+07 1.97957e+07 2.26964e+07 2.31237e+07 2.35328e+07 2.36033e+07 2.36402e+07 2.38573e+07 2.41919e+07 2.46871e+07 2.50829e+07
          2.52764e+07 2.57699e+07 2.63675e+07 2.1496e+07 2.1539e+07 2.21197e+07 2.3201e+07 2.35158e+07 2.37865e+07 2.38286e+07 2.38597e+07 2.41589e+07
          2.46412e+07 2.51484e+07 2.54104e+07 2.56188e+07 2.61059e+07 2.66615e+07 2.17526e+07 2.18028e+07 2.27886e+07 2.36943e+07 2.39037e+07 2.40872e+07
          2.41241e+07 2.41967e+07 2.44632e+07 2.50835e+07 2.55837e+07 2.57006e+07 2.58987e+07 2.64705e+07 2.70729e+07 2.21215e+07 2.21756e+07 2.32655e+07
          2.40701e+07 2.42557e+07 2.4378e+07 2.44859e+07 2.45831e+07 2.48678e+07 2.54715e+07 2.58743e+07 2.59649e+07 2.62297e+07 2.68491e+07 2.76435e+07
          2.26596e+07 2.27218e+07 2.36467e+07 2.44175e+07 2.46459e+07 2.48684e+07 2.50339e+07 2.52073e+07 2.54818e+07 2.59524e+07 2.61853e+07 2.62233e+07
          2.64932e+07 2.72809e+07 2.82143e+07 2.33147e+07 2.34173e+07 2.39952e+07 2.46319e+07 2.50747e+07 2.53293e+07 2.56545e+07 2.59876e+07 2.61678e+07
          2.64342e+07 2.65674e+07 2.65998e+07 2.68832e+07 2.77177e+07 2.85522e+07 2.42288e+07 2.43664e+07 2.46278e+07 2.51016e+07 2.54851e+07 2.56626e+07
          2.61475e+07 2.66316e+07 2.67745e+07 2.68902e+07 2.69607e+07 2.70039e+07 2.72384e+07 2.80783e+07 2.88003e+07 2.49409e+07 2.50198e+07 2.51598e+07
          2.55369e+07 2.58642e+07 2.59841e+07 2.66249e+07 2.72447e+07 2.72921e+07 2.73411e+07 2.737e+07 2.74124e+07 2.76143e+07 2.84402e+07 2.90778e+07
          2.54552e+07 2.55124e+07 2.55879e+07 2.59538e+07 2.62819e+07 2.65355e+07 2.72503e+07 2.78901e+07 2.79791e+07 2.78451e+07 2.7857e+07 2.79164e+07
          2.8602e+07 2.96773e+07 2.98911e+07 2.58411e+07 2.59054e+07 2.60518e+07 2.64558e+07 2.73844e+07 2.75104e+07 2.8083e+07 2.85333e+07 2.85911e+07
          2.85698e+07 2.8403e+07 2.9052e+07 2.99898e+07 3.06382e+07 3.03461e+07 2.66004e+07 2.66054e+07 2.68408e+07 2.73282e+07 2.83316e+07 2.84211e+07
          2.87917e+07 2.90707e+07 2.91214e+07 2.91922e+07 2.93148e+07 3.02012e+07 3.09074e+07 3.10939e+07 3.08937e+07 2.73768e+07 2.74016e+07 2.76211e+07
          2.86195e+07 2.89222e+07 2.8983e+07 2.92445e+07 2.9417e+07 2.9468e+07 2.95463e+07 2.98596e+07 3.06776e+07 3.12878e+07 3.16216e+07 3.14087e+07
          2.8163e+07 2.82009e+07 2.8317e+07 2.92122e+07 2.93798e+07 2.94184e+07 2.95463e+07 2.96603e+07 2.97095e+07 2.9775e+07 3.0207e+07 3.11752e+07
          3.18255e+07 3.21491e+07 3.18786e+07 2.88005e+07 2.88584e+07 2.92256e+07 2.95408e+07 2.96791e+07 2.97235e+07 2.98214e+07 2.99049e+07 2.99563e+07
          3.00156e+07 3.05497e+07 3.15723e+07 3.22355e+07 3.24979e+07 3.23467e+07 2.91255e+07 2.91923e+07 2.942e+07 2.97611e+07 2.99373e+07 2.99852e+07
          3.007e+07 3.01425e+07 3.01893e+07 3.02462e+07 3.08339e+07 3.19642e+07 3.26431e+07 3.28364e+07 3.2999e+07 2.93841e+07 2.94431e+07 2.96505e+07
          2.99892e+07 3.01615e+07 3.021e+07 3.02917e+07 3.03599e+07 3.04071e+07 3.0471e+07 3.1053e+07 3.22988e+07 3.30449e+07 3.3194e+07 3.36189e+07
          2.95993e+07 2.9667e+07 2.98318e+07 3.01448e+07 3.03597e+07 3.04136e+07 3.05017e+07 3.05739e+07 3.06389e+07 3.07213e+07 3.15461e+07 3.28785e+07
          3.34168e+07 3.35751e+07 3.40996e+07 2.9805e+07 2.98755e+07 3.0022e+07 3.0328e+07 3.05472e+07 3.06072e+07 3.071e+07 3.07931e+07 3.08791e+07
          3.0975e+07 3.20898e+07 3.34738e+07 3.38028e+07 3.3998e+07 3.45676e+07 2.99912e+07 3.00552e+07 3.0233e+07 3.05562e+07 3.07348e+07 3.08045e+07
          3.09265e+07 3.10236e+07 3.11361e+07 3.12572e+07 3.25488e+07 3.39629e+07 3.42438e+07 3.44639e+07 3.49e+07 3.01602e+07 3.02209e+07 3.03762e+07
          3.07004e+07 3.0931e+07 3.10026e+07 3.11406e+07 3.12543e+07 3.13929e+07 3.15581e+07 3.30572e+07 3.43868e+07 3.46992e+07 3.48972e+07 3.51926e+07
        </DataArray>
        <DataArray type="Float32" Name="pressure[1]" NumberOfComponents="1" format="ascii">
          2.101e+07 2.10245e+07 2.15926e+07 2.21856e+07 2.25559e+07 2.29854e+07 2.31203e+07 2.31704e+07 2.32308e+07 2.32985e+07 2.34945e+07 2.38185e+07
          2.40593e+07 2.46998e+07 2.54603e+07 2.10541e+07 2.10686e+07 2.16967e+07 2.23192e+07 2.27283e+07 2.31629e+07 2.3262e+07 2.33011e+07 2.33636e+07
          2.34408e+07 2.37144e+07 2.40424e+07 2.42369e+07 2.48946e+07 2.56273e+07 2.10988e+07 2.11127e+07 2.17663e+07 2.24627e+07 2.28239e+07 2.32306e+07
          2.33498e+07 2.34081e+07 2.34902e+07 2.35986e+07 2.39695e+07 2.43433e+07 2.45342e+07 2.51415e+07 2.584e+07 2.11647e+07 2.12071e+07 2.16349e+07
          2.25964e+07 2.29452e+07 2.3333e+07 2.34407e+07 2.34943e+07 2.36248e+07 2.3799e+07 2.42963e+07 2.47212e+07 2.49088e+07 2.5436e+07 2.6106e+07
          2.12959e+07 2.132e+07 1.97957e+07 2.26964e+07 2.31237e+07 2.35328e+07 2.36033e+07 2.36402e+07 2.38573e+07 2.41919e+07 2.46871e+07 2.50829e+07
          2.52764e+07 2.57699e+07 2.63675e+07 2.1496e+07 2.1539e+07 2.21197e+07 2.3201e+07 2.35158e+07 2.37865e+07 2.38286e+07 2.38597e+07 2.41589e+07
          2.46412e+07 2.51484e+07 2.54104e+07 2.56188e+07 2.61059e+07 2.66615e+07 2.17526e+07 2.18028e+07 2.27886e+07 2.36943e+07 2.39037e+07 2.40872e+07
          2.41241e+07 2.41967e+07 2.44632e+07 2.50835e+07 2.55837e+07 2.57006e+07 2.58987e+07 2.64705e+07 2.70729e+07 2.21215e+07 2.21756e+07 2.32655e+07
          2.40701e+07 2.42557e+07 2.4378e+07 2.44859e+07 2.45831e+07 2.48678e+07 2.54715e+07 2.58743e+07 2.59649e+07 2.62297e+07 2.68491e+07 2.76435e+07
          2.26596e+07 2.27218e+07 2.36467e+07 2.44175e+07 2.46459e+07 2.48684e+07 2.50339e+07 2.52073e+07 2.54818e+07 2.59524e+07 2.61853e+07 2.62233e+07
          2.64932e+07 2.72809e+07 2.82143e+07 2.33147e+07 2.34173e+07 2.39952e+07 2.46319e+07 2.50747e+07 2.53293e+07 2.56545e+07 2.59876e+07 2.61678e+07
          2.64342e+07 2.65674e+07 2.65998e+07 2.68832e+07 2.77177e+07 2.85522e+07 2.42288e+07 2.43664e+07 2.46278e+07 2.51016e+07 2.54851e+07 2.56626e+07
          2.61475e+07 2.66316e+07 2.67745e+07 2.68902e+07 2.69607e+07 2.70039e+07 2.72384e+07 2.80783e+07 2.88003e+07 2.49409e+07 2.50198e+07 2.51598e+07
          2.55369e+07 2.58642e+07 2.59841e+07 2.66249e+07 2.72447e+07 2.72921e+07 2.73411e+07 2.737e+07 2.74124e+07 2.76143e+07 2.84402e+07 2.90778e+07
          2.54552e+07 2.55124e+07 2.55879e+07 2.59538e+07 2.62819e+07 2.65355e+07 2.72503e+07 2.78901e+07 2.79791e+07 2.78451e+07 2.7857e+07 2.79164e+07
          2.8602e+07 2.96773e+07 2.98911e+07 2.58411e+07 2.59054e+07 2.60518e+07 2.64558e+07 2.73844e+07 2.75104e+07 2.8083e+07 2.85333e+07 2.85911e+07
          2.85698e+07 2.8403e+07 2.9052e+07 2.99898e+07 3.06382e+07 3.03461e+07 2.66004e+07 2.66054e+07 2.68408e+07 2.73282e+07 2.83316e+07 2.84211e+07
          2.87917e+07 2.90707e+07 2.91214e+07 2.91922e+07 2.93148e+07 3.02012e+07 3.09074e+07 3.10939e+07 3.08937e+07 2.73768e+07 2.74016e+07 2.76211e+07
          2.86195e+07 2.89222e+07 2.8983e+07 2.92445e+07 2.9417e+07 2.9468e+07 2.95463e+07 2.98596e+07 3.06776e+07 3.12878e+07 3.16216e+07 3.14087e+07
          2.8163e+07 2.82009e+07 2.8317e+07 2.92122e+07 2.93798e+07 2.94184e+07 2.95463e+07 2.96603e+07 2.97095e+07 2.9775e+07 3.0207e+07 3.11752e+07
          3.18255e+07 3.21491e+07 3.18786e+07 2.88005e+07 2.88584e+07 2.92256e+07 2.95408e+07 2.96791e+07 2.97235e+07 2.98214e+07 2.99049e+07 2.99563e+07
          3.00156e+07 3.05497e+07 3.15723e+07 3.22355e+07 3.24979e+07 3.23467e+07 2.91255e+07 2.91923e+07 2.942e+07 2.97611e+07 2.99373e+07 2.99852e+07
          3.007e+07 3.01425e+07 3.01893e+07 3.02462e+07 3.08339e+07 3.19642e+07 3.26431e+07 3.28364e+07 3.2999e+07 2.93841e+07 2.94431e+07 2.96505e+07
          2.99892e+07 3.01615e+07 3.021e+07 3.02917e+07 3.03599e+07 3.04071e+07 3.0471e+07 3.1053e+07 3.22988e+07 3.30449e+07 3.3194e+07 3.36189e+07
          2.95993e+07 2.9667e+07 2.98318e+07 3.01448e+07 3.03597e+07 3.04136e+07 3.05017e+07 3.05739e+07 3.06389e+07 3.07213e+07 3.15461e+07 3.28785e+07
          3.34168e+07 3.35751e+07 3.40996e+07 2.9805e+07 2.98755e+07 3.0022e+07 3.0328e+07 3.05472e+07 3.06072e+07 3.071e+07 3.07931e+07 3.08791e+07
          3.0975e+07 3.20898e+07 3.34738e+07 3.38028e+07 3.3998e+07 3.45676e+07 2.99912e+07 3.00552e+07 3.0233e+07 3.05562e+07 3.07348e+07 3.08045e+07
          3.09265e+07 3.10236e+07 3.11361e+07 3.12572e+07 3.25488e+07 3.39629e+07 3.42438e+07 3.44639e+07 3.49e+07 3.01602e+07 3.02209e+07 3.03762e+07
          3.07004e+07 3.0931e+07 3.10026e+07 3.11406e+07 3.12543e+07 3.13929e+07 3.15581e+07 3.30572e+07 3.43868e+07 3.46992e+07 3.48972e+07 3.51926e+07
        </DataArray>
        <DataArray type="Float32" Name="pressure[2]" NumberOfComponents="1" format="ascii">
          2.101e+07 2.10245e+07 2.15926e+07 2.21856e+07 2.25559e+07 2.29854e+07 2.31203e+07 2.31704e+07 2.32308e+07 2.32985e+07 2.34945e+07 2.38185e+07
          2.40593e+07 2.46998e+07 2.54603e+07 2.10541e+07 2.10686e+07 2.16967e+07 2.23192e+07 2.27283e+07 2.31629e+07 2.3262e+07 2.33011e+07 2.33636e+07
          2.34408e+07 2.37144e+07 2.40424e+07 2.42369e+07 2.48946e+07 2.56273e+07 2.10988e+07 2.11127e+07 2.17663e+07 2.24627e+07 2.28239e+07 2.32306e+07
          2.33498e+07 2.34081e+07 2.34902e+07 2.35986e+07 2.39695e+07 2.43433e+07 2.45342e+07 2.51415e+07 2.584e+07 2.11647e+07 2.12071e+07 2.16349e+07
          2.25964e+07 2.29452e+07 2.3333e+07 2.34407e+07 2.34943e+07 2.36248e+07 2.3799e+07 2.42963e+07 2.47212e+07 2.49088e+07 2.5436e+07 2.6106e+07
          2.12959e+07 2.132e+07 1.97957e+07 2.26964e+07 2.31237e+07 2.35328e+07 2.36033e+07 2.36402e+07 2.38573e+07 2.41919e+07 2.46871e+07 2.50829e+07
          2.52764e+07 2.57699e+07 2.63675e+07 2.1496e+07 2.1539e+07 2.21197e+07 2.3201e+07 2.35158e+07 2.37865e+07 2.38286e+07 2.38597e+07 2.41589e+07
          2.46412e+07 2.51484e+07 2.54104e+07 2.56188e+07 2.61059e+07 2.66615e+07 2.17526e+07 2.18028e+07 2.27886e+07 2.36943e+07 2.39037e+07 2.40872e+07
          2.41241e+07 2.41967e+07 2.44632e+07 2.50835e+07 2.55837e+07 2.57006e+07 2.58987e+07 2.64705e+07 2.70729e+07 2.21215e+07 2.21756e+07 2.32655e+07
          2.40701e+07 2.42557e+07 2.4378e+07 2.44859e+07 2.45831e+07 2.48678e+07 2.54715e+07 2.58743e+07 2.59649e+07 2.62297e+07 2.68491e+07 2.76435e+07
          2.26596e+07 2.27218e+07 2.36467e+07 2.44175e+07 2.46459e+07 2.48684e+07 2.50339e+07 2.52073e+07 2.54818e+07 2.59524e+07 2.61853e+07 2.62233e+07
          2.64932e+07 2.72809e+07 2.82143e+07 2.33147e+07 2.34173e+07 2.39952e+07 2.46319e+07 2.50747e+07 2.53293e+07 2.56545e+07 2.59876e+07 2.61678e+07
          2.64342e+07 2.65674e+07 2.65998e+07 2.68832e+07 2.77177e+07 2.85522e+07 2.42288e+07 2.43664e+07 2.46278e+07 2.51016e+07 2.54851e+07 2.56626e+07
          2.61475e+07 2.66316e+07 2.67745e+07 2.68902e+07 2.69607e+07 2.70039e+07 2.72384e+07 2.80783e+07 2.88003e+07 2.49409e+07 2.50198e+07 2.51598e+07
          2.55369e+07 2.58642e+07 2.59841e+07 2.66249e+07 2.72447e+07 2.72921e+07 2.73411e+07 2.737e+07 2.74124e+07 2.76143e+07 2.84402e+07 2.90778e+07
          2.54552e+07 2.55124e+07 2.55879e+07 2.59538e+07 2.62819e+07 2.65355e+07 2.72503e+07 2.78901e+07 2.79791e+07 2.78451e+07 2.7857e+07 2.79164e+07
          2.8602e+07 2.96773e+07 2.98911e+07 2.58411e+07 2.59054e+07 2.60518e+07 2.64558e+07 2.73844e+07 2.75104e+07 2.8083e+07 2.85333e+07 2.85911e+07
          2.85698e+07 2.8403e+07 2.9052e+07 2.99898e+07 3.06382e+07 3.03461e+07 2.66004e+07 2.66054e+07 2.68408e+07 2.73282e+07 2.83316e+07 2.84211e+07
          2.87917e+07 2.90707e+07 2.91214e+07 2.91922e+07 2.93148e+07 3.02012e+07 3.09074e+07 3.10939e+07 3.08937e+07 2.73768e+07 2.74016e+07 2.76211e+07
          2.86195e+07 2.89222e+07 2.8983e+07 2.92445e+07 2.9417e+07 2.9468e+07 2.95463e+07 2.98596e+07 3.06776e+07 3.12878e+07 3.16216e+07 3.14087e+07
          2.8163e+07 2.82009e+07 2.8317e+07 2.92122e+07 2.93798e+07 2.94184e+07 2.95463e+07 2.96603e+07 2.97095e+07 2.9775e+07 3.0207e+07 3.11752e+07
          3.18255e+07 3.21491e+07 3.18786e+07 2.88005e+07 2.88584e+07 2.92256e+07 2.95408e+07 2.96791e+07 2.97235e+07 2.98214e+07 2.99049e+07 2.99563e+07
          3.00156e+07 3.05497e+07 3.15723e+07 3.22355e+07 3.24979e+07 3.23467e+07 2.91255e+07 2.91923e+07 2.942e+07 2.97611e+07 2.99373e+07 2.99852e+07
          3.007e+07 3.01425e+07 3.01893e+07 3.02462e+07 3.08339e+07 3.19642e+07 3.26431e+07 3.28364e+07 3.2999e+07 2.93841e+07 2.94431e+07 2.96505e+07
          2.99892e+07 3.01615e+07 3.021e+07 3.02917e+07 3.03599e+07 3.04071e+07 3.0471e+07 3.1053e+07 3.22988e+07 3.30449e+07 3.3194e+07 3.36189e+07
          2.95993e+07 2.9667e+07 2.98318e+07 3.01448e+07 3.03597e+07 3.04136e+07 3.05017e+07 3.05739e+07 3.06389e+07 3.07213e+07 3.15461e+07 3.28785e+07
          3.34168e+07 3.35751e+07 3.40996e+07 2.9805e+07 2.98755e+07 3.0022e+07 3.0328e+07 3.05472e+07 3.06072e+07 3.071e+07 3.07931e+07 3.08791e+07
          3.0975e+07 3.20898e+07 3.34738e+07 3.38028e+07 3.3998e+07 3.45676e+07 2.99912e+07 3.00552e+07 3.0233e+07 3.05562e+07 3.07348e+07 3.08045e+07
          3.09265e+07 3.10236e+07 3.11361e+07 3.12572e+07 3.25488e+07 3.39629e+07 3.42438e+07 3.44639e+07 3.49e+07 3.01602e+07 3.02209e+07 3.03762e+07
          3.07004e+07 3.0931e+07 3.10026e+07 3.11406e+07 3.12543e+07 3.13929e+07 3.15581e+07 3.30572e+07 3.43868e+07 3.46992e+07 3.48972e+07 3.51926e+07
        </DataArray>
        <DataArray type="Float32" Name="velocity[0]" NumberOfComponents="1" format="ascii">
          -6.39897e-10 3.34256e-08 2.36741e-10 -1.26298e-09 -3.06472e-10 -1.2902e-09 -9.10531e-11 1.47534e-09 2.37574e-09 -1.7854e-10 -1.87968e-09 -2.64215e-09
          -1.77479e-09 -5.89322e-10 -2.71922e-09 -7.82965e-09 1.02686e-07 5.64506e-10 -1.00139e-08 8.76258e-11 1.97005e-09 9.09828e-09 6.20543e-09 5.43614e-09
          -1.92894e-09 -3.92328e-09 -1.12819e-08 -6.92868e-09 -1.81574e-09 -7.21584e-09 -4.68127e-08 1.91006e-07 1.21205e-09 1.26534e-08 7.1888e-10 5.82511e-09
          1.67641e-08 1.20715e-08 3.68256e-09 -5.38698e-09 -4.69268e-09 -2.83232e-08 -9.95828e-09 -3.8743e-09 -1.08222e-08 -4.45336e-08 2.02905e-07 6.78584e-09
          8.97642e-08 -8.20246e-10 -4.38468e-09 2.41844e-09 6.24731e-09 -2.88927e-09 -1.26066e-08 -6.05292e-09 -4.9e-08 -7.0888e-09 -5.6603e-09 -1.47797e-08
          -8.77759e-08 -3.89755e-08 -2.5363e-10 -1.0853e-07 -1.3305e-08 -4.40049e-08 -4.21327e-08 -3.02705e-08 -6.32196e-09 -1.32209e-08 -8.56991e-09 -8.36973e-08
          -3.59312e-09 -5.19164e-09 -1.82338e-08 -1.74843e-07 -2.18163e-07 -7.48904e-09 -2.45206e-07 -3.08961e-08 -1.55239e-07 -8.68428e-08 -6.48382e-08 -4.93682e-09
          -6.05743e-09 -1.32509e-08 -1.22701e-07 -2.12737e-09 -4.1415e-09 -2.05623e-08 -1.76273e-07 -1.8969e-07 -2.36466e-09 -8.22065e-08 -3.17034e-08 -2.87366e-07
          -6.36479e-08 -1.02497e-07 -5.0372e-09 -2.95563e-09 -1.66708e-08 -1.50713e-07 -1.87194e-09 -4.09269e-09 -2.2181e-08 -1.60991e-07 -1.74713e-07 -2.20233e-09
          -1.77754e-08 -2.49731e-08 -3.04722e-07 -2.29767e-08 -2.0266e-07 -6.30818e-09 -2.73286e-09 -1.93204e-08 -1.71425e-07 -1.57565e-09 -4.22576e-09 -2.40103e-08
          -1.45761e-07 -1.58129e-07 -2.74573e-09 -4.44324e-09 -2.60657e-08 -2.6173e-07 -1.26852e-08 -3.11317e-07 -6.19717e-09 -3.29154e-09 -3.30011e-08 -1.67792e-07
          -1.52861e-09 -3.8253e-09 -2.64233e-08 -1.18824e-07 -1.44096e-07 -1.03536e-08 -2.06806e-09 -2.86271e-08 -2.43835e-07 -4.49847e-09 -3.87606e-07 -5.90543e-09
          -3.73303e-09 -5.62555e-08 -1.42761e-07 -2.42055e-09 -3.20452e-09 -2.8836e-08 -8.73558e-08 -1.34836e-07 -2.06225e-08 -2.23341e-09 -3.11749e-08 -2.319e-07
          -1.53326e-09 -4.37684e-07 -1.09845e-08 -5.1957e-09 -7.22058e-08 -1.1479e-07 -5.50425e-09 -3.53668e-09 -3.10308e-08 -6.76413e-08 -1.26218e-07 -2.56882e-08
          -1.38942e-09 -3.53603e-08 -2.27863e-07 -1.23836e-09 -4.59364e-07 -1.98141e-08 -1.00286e-08 -7.79034e-08 -8.02176e-08 -1.17672e-08 -6.47055e-09 -3.3412e-08
          -5.66627e-08 -1.20834e-07 -2.33493e-08 -2.37005e-09 -3.01673e-08 -2.23016e-07 -1.77329e-09 -4.78594e-07 -4.35557e-08 -1.12618e-08 -7.36802e-08 -3.48874e-08
          -2.61115e-08 -1.38505e-08 -3.48089e-08 -4.53563e-08 -1.22096e-07 -1.80007e-08 -6.88646e-09 -2.37389e-08 -2.16587e-07 -1.8686e-09 -4.83317e-07 -8.18408e-08
          -1.63128e-08 -4.57962e-08 -7.83956e-09 -3.5097e-08 -2.71752e-08 -3.33642e-08 -4.58732e-08 -1.02893e-07 -1.45957e-08 -8.07181e-09 -2.94156e-08 -2.19911e-07
          -1.37767e-09 -4.62863e-07 -1.04593e-07 -2.69286e-08 -1.98743e-08 -4.5343e-09 -3.30968e-08 -4.32074e-08 -2.97155e-08 -5.78069e-08 -6.93756e-08 -1.23163e-08
          -5.15062e-09 -3.68785e-08 -2.23796e-07 -1.76041e-09 -4.01374e-07 -1.1071e-07 -3.43895e-08 -1.03215e-08 -5.60621e-09 -3.73488e-08 -6.41788e-08 -2.48717e-08
          -6.26696e-08 -5.02583e-08 -8.94651e-09 -5.61037e-09 -5.19666e-08 -1.97623e-07 -3.33357e-09 -3.20211e-07 -1.12151e-07 -5.23645e-08 -3.89219e-09 -5.32278e-09
          -3.07543e-08 -9.56387e-08 -1.96819e-08 -6.29552e-08 -3.96877e-08 -3.20548e-09 -4.13818e-09 -7.74177e-08 -1.42841e-07 -5.02846e-09 -2.45354e-07 -1.21623e-07
          -7.98267e-08 -2.69668e-09 -3.56781e-09 -1.99913e-08 -1.25199e-07 -1.53266e-08 -5.72214e-08 -2.83722e-08 -1.62918e-09 -1.49395e-09 -9.56165e-08 -9.07532e-08
          -5.29165e-09 -1.7585e-07 -1.21966e-07 -1.25944e-07 -1.56303e-09 -2.936e-09 -2.61722e-08 -1.43227e-07 -1.34026e-08 -4.76826e-08 -1.91478e-08 -1.56361e-09
          -6.7444e-10 -1.01663e-07 -5.15435e-08 -4.41576e-09 -1.28943e-07 -7.9038e-08 -2.18765e-07 -2.73925e-09 -4.18255e-09 -3.89157e-08 -1.51991e-07 -1.44182e-08
          -3.65112e-08 -1.28943e-08 -1.40042e-09 -1.75634e-10 -9.44618e-08 -2.69262e-08 -3.78657e-09 -1.01552e-07 -3.31105e-08 -3.03718e-07 -4.30193e-09 -7.71085e-09
          -4.7328e-08 -1.58929e-07 -1.65636e-08 -2.29792e-08 -6.58004e-09 -2.19818e-09 -8.52314e-10 -6.97936e-08 -1.83001e-08 -3.7026e-09 -9.59474e-08 -1.79752e-08
          -3.21119e-07 -3.92331e-09 -1.4803e-08 -5.18195e-08 -1.65967e-07 -2.0555e-08 -1.0725e-08 -2.62839e-09 -9.88663e-10 -5.62854e-10 -3.4825e-08 -1.3652e-08
          -3.03907e-09 -1.01269e-07 -1.44893e-08 -2.76662e-07 -5.44263e-09 -2.55174e-08 -6.80234e-08 -1.7299e-07 -2.68393e-08 -2.83944e-09 -5.90418e-10 2.19679e-10
          8.10124e-11 -8.20807e-09 -5.20726e-09 -1.11235e-09 -5.16091e-08 -6.74881e-09 -1.19608e-07 -3.59091e-09 -1.54807e-08 -4.06364e-08 -8.89269e-08 -1.50703e-08
        </DataArray>
        <DataArray type="Float32" Name="velocity[1]" NumberOfComponents="1" format="ascii">
          9.94475e-26 5.28994e-24 7.56087e-26 -1.96282e-25 4.76294e-26 0 1.41507e-26 -1.93756e-25 4.85807e-26 5.63835e-24 -3.6551e-24 3.6379e-26
          2.41387e-24 -9.5537e-25 4.22731e-25 1.01793e-24 5.48914e-24 7.02963e-26 -1.16371e-24 -1.88494e-25 7.231e-24 1.25317e-24 3.58845e-25 -6.84118e-24
          -1.42763e-25 0 -3.32292e-26 3.71218e-26 6.85717e-29 2.76229e-25 5.04051e-24 -7.97014e-24 -1.61175e-24 4.68649e-24 -2.20919e-25 0
          1.72764e-25 -4.53964e-25 -3.78931e-25 0 6.99413e-24 -1.09147e-23 0 1.13639e-24 -2.83956e-25 -1.07488e-23 1.80242e-23 -1.49461e-24
          -8.52099e-24 3.04397e-25 9.58819e-24 -2.13764e-23 2.4666e-23 -4.03003e-24 1.15024e-24 3.47117e-24 -4.62126e-24 3.16147e-24 -1.32257e-24 9.92264e-25
          -9.57279e-26 -6.25672e-23 5.88e-24 1.04433e-23 -4.86299e-25 -5.03401e-24 1.66232e-25 -1.26269e-25 -1.07487e-25 -6.59749e-24 4.26092e-24 -7.79095e-24
          7.2376e-29 1.29587e-25 -1.51987e-24 -1.3098e-25 6.8716e-24 -6.2213e-25 7.87782e-24 2.35427e-25 -1.3151e-23 0 -1.29771e-25 -1.14798e-25
          3.40879e-25 -4.53942e-25 5.59891e-24 -1.46371e-24 8.66324e-25 1.52027e-24 -1.0326e-24 1.21367e-24 0 8.87492e-24 -7.25985e-25 -2.23261e-23
          -1.44408e-25 -1.22196e-25 -3.61512e-24 4.31875e-28 1.22543e-28 -2.62171e-28 3.62369e-26 2.39957e-28 -1.67575e-24 -1.75515e-25 1.29048e-23 1.31129e-24
          2.97277e-24 -1.1563e-25 3.18004e-23 -7.32319e-26 -6.85121e-26 -1.5185e-25 -6.75899e-26 -3.86828e-24 -1.28983e-23 2.57537e-28 -3.70631e-25 1.96004e-24
          -1.36554e-24 -9.33879e-24 -7.53088e-26 -1.59503e-24 2.33727e-25 4.18371e-24 0 0 -6.44965e-25 -5.06977e-28 1.06376e-24 3.19279e-24
          6.28848e-28 5.74512e-26 4.33112e-28 -1.07336e-23 1.22518e-24 1.43251e-24 -3.3543e-25 -2.28798e-24 3.94279e-24 -7.29363e-24 5.6932e-24 6.63797e-25
          -4.86208e-26 -5.99323e-25 3.29732e-24 -8.40112e-25 0 -2.14645e-24 4.15685e-24 9.24574e-26 4.76134e-25 -2.36073e-25 2.36297e-24 -2.10506e-27
          -4.54956e-24 4.1867e-24 7.39298e-25 1.77094e-25 1.88087e-25 8.38787e-24 1.81769e-24 -3.04098e-25 1.52049e-25 -4.66911e-24 1.68703e-24 -3.12139e-25
          2.08537e-26 -1.43042e-24 -1.76575e-23 2.93542e-26 1.28094e-24 -1.71573e-24 -5.72191e-25 2.28164e-25 2.83784e-24 -1.99629e-24 1.11956e-24 -2.17217e-25
          4.1363e-24 9.38881e-24 0 -1.615e-25 -1.13891e-24 6.52726e-25 5.54246e-26 1.71307e-24 -3.05934e-24 8.45244e-28 -5.28344e-24 -8.48299e-25
          1.67178e-24 -6.84613e-25 -4.43905e-28 -1.22498e-24 1.30402e-27 9.87745e-25 -1.08151e-24 3.18988e-27 1.5907e-23 -3.70605e-26 -9.74568e-25 3.59724e-24
          1.97328e-24 5.28304e-24 2.50438e-24 -4.68913e-24 3.56546e-28 -2.48026e-24 -2.91457e-24 -6.41071e-24 2.4754e-27 8.05321e-25 7.40862e-25 -7.6019e-28
          -3.73308e-26 -6.0474e-24 1.70936e-24 0 0 3.7006e-25 3.84314e-24 -5.15749e-25 4.61859e-24 0 2.03395e-24 0
          -3.51333e-25 4.21812e-25 -9.44551e-28 9.68141e-26 -7.35358e-24 9.59919e-28 9.02538e-28 5.76929e-28 4.21006e-24 3.26096e-28 -1.23644e-24 -2.13713e-24
          -1.60296e-27 9.39073e-25 2.31479e-27 -1.71316e-25 1.92721e-24 -1.02971e-23 0 -1.06364e-23 0 -7.71673e-28 3.06845e-24 -3.80136e-24
          -1.72091e-24 3.39909e-29 1.33105e-24 0 3.43681e-24 0 5.20932e-25 1.81458e-24 4.94692e-24 1.14042e-25 -6.37403e-24 -5.53728e-24
          -2.15054e-24 1.83478e-25 5.39657e-26 2.45475e-28 -1.75982e-24 -1.05089e-24 4.08189e-24 -2.03059e-24 2.23701e-24 -1.85373e-24 8.00055e-25 8.74667e-24
          -7.31213e-26 -4.42764e-24 1.02266e-23 5.46003e-24 -3.28507e-24 7.1296e-26 9.12194e-25 -2.56979e-28 1.03203e-24 1.37847e-27 -3.69056e-24 7.99915e-25
          -1.70127e-24 2.80623e-25 -2.70781e-24 -1.2433e-25 -5.72322e-24 -5.17708e-24 9.40886e-24 2.67083e-25 3.51482e-24 1.06859e-24 -3.5329e-25 -8.55344e-25
          -9.8284e-25 5.92141e-25 0 -3.54984e-26 -1.26016e-24 4.40456e-24 -7.74274e-24 7.74673e-24 -5.65371e-24 2.7869e-28 0 0
          2.3887e-25 -5.46591e-28 1.36546e-24 -1.1202e-24 -1.18165e-24 1.08811e-24 -1.83202e-24 -9.19504e-25 -1.31065e-24 2.00712e-26 5.23749e-25 -3.68984e-24
          1.3321e-23 -2.5373e-25 -6.39897e-24 4.58906e-25 9.27843e-25 1.37359e-28 -7.82875e-25 -1.43997e-27 -1.59476e-27 1.08809e-25 -2.86229e-24 5.04859e-25
          -1.26561e-25 1.00668e-23 -4.18524e-24 0 -2.70291e-25 -8.45839e-25 6.51624e-24 -7.56667e-25 0 -4.42668e-25 -1.5314e-27 -3.63496e-25
          6.14608e-25 -1.27423e-24 -2.12191e-24 -3.49056e-25 -2.71708e-24 1.04884e-24 -2.90417e-23 0 2.90374e-23 -2.12868e-23 1.75799e-23 4.41604e-25
        </DataArray>
        <DataArray type="Float32" Name="velocity[2]" NumberOfComponents="1" format="ascii">
          -6.87876e-11 4.34149e-09 -3.1298e-09 -3.27299e-09 -2.95751e-09 -3.00256e-09 -2.69682e-09 -2.44078e-09 -2.43904e-09 -2.98983e-09 -3.12529e-09 -2.94606e-09
          -2.4812e-09 -2.02449e-09 -1.38561e-09 -9.42024e-10 1.72181e-08 -2.52394e-09 -3.94496e-09 -1.76078e-09 -1.63141e-09 -8.03636e-10 -1.63089e-09 -1.86891e-09
          -3.10825e-09 -3.34756e-09 -4.24133e-09 -2.85984e-09 -1.6108e-09 -1.86458e-09 -6.08314e-09 3.54028e-08 -7.0965e-10 -1.77178e-10 -3.69865e-09 -2.69616e-09
          -6.52142e-10 -1.48451e-09 -2.85616e-09 -4.18716e-09 -3.90548e-09 -7.33492e-09 -3.43383e-09 -2.13879e-09 -2.51765e-09 -1.0148e-08 3.31976e-08 2.41851e-10
          1.21757e-08 -5.96032e-09 -5.9774e-09 -3.93922e-09 -2.66887e-09 -3.76364e-09 -4.95704e-09 -3.4961e-09 -1.04228e-08 -2.62163e-09 -2.477e-09 -3.31484e-09
          -1.02398e-08 -4.70285e-10 -9.95043e-10 -2.67267e-08 -1.26243e-08 -1.59085e-08 -1.32431e-08 -9.50381e-09 -4.51063e-09 -5.88728e-09 -5.11046e-09 -1.67374e-08
          -1.17341e-09 -1.65933e-09 -3.65665e-09 -3.0167e-08 -3.81966e-08 -2.47624e-09 -5.00746e-08 -1.71603e-08 -3.47871e-08 -1.84815e-08 -1.40285e-08 -3.26901e-09
          -3.55271e-09 -4.724e-09 -2.30024e-08 -9.3754e-10 -1.36177e-09 -3.95973e-09 -3.15257e-08 -3.45806e-08 -1.77367e-09 -1.84854e-08 -1.24834e-08 -5.5341e-08
          -1.43565e-08 -2.1292e-08 -3.1694e-09 -2.74352e-09 -5.15645e-09 -2.79164e-08 -8.10688e-10 -1.15897e-09 -4.11601e-09 -2.88193e-08 -3.20203e-08 -1.90094e-09
          -5.053e-09 -6.7899e-09 -5.76166e-08 -9.53155e-09 -3.9474e-08 -2.96975e-09 -2.29259e-09 -5.06416e-09 -3.13509e-08 -1.03786e-09 -1.54681e-09 -4.63771e-09
          -2.61293e-08 -2.9059e-08 -1.94086e-09 -2.39091e-09 -6.31553e-09 -4.83211e-08 -5.10555e-09 -5.68487e-08 -2.03374e-09 -1.55284e-09 -6.05551e-09 -2.9705e-08
          -9.76873e-10 -1.41091e-09 -5.05731e-09 -2.21668e-08 -2.80493e-08 -4.05062e-09 -1.9752e-09 -6.64478e-09 -4.49664e-08 -3.22962e-09 -6.9874e-08 -1.57269e-09
          -1.15924e-09 -9.66589e-09 -2.50629e-08 -1.17462e-09 -1.32883e-09 -5.48814e-09 -1.61853e-08 -2.54695e-08 -5.21186e-09 -1.76081e-09 -6.79572e-09 -4.2241e-08
          -1.79173e-09 -7.83537e-08 -2.46731e-09 -1.11505e-09 -1.26179e-08 -2.0652e-08 -1.99588e-09 -1.37331e-09 -5.79788e-09 -1.24311e-08 -2.35353e-08 -5.90608e-09
          -1.45096e-09 -7.33074e-09 -4.11923e-08 -1.25675e-09 -8.18152e-08 -3.84514e-09 -1.72944e-09 -1.34578e-08 -1.50546e-08 -4.02713e-09 -2.46343e-09 -6.35755e-09
          -1.02195e-08 -2.17607e-08 -4.94478e-09 -1.57003e-09 -6.81185e-09 -4.14054e-08 -2.57996e-09 -8.63565e-08 -8.17002e-09 -1.39319e-09 -1.28587e-08 -7.81725e-09
          -6.99094e-09 -3.27342e-09 -6.1326e-09 -8.5216e-09 -2.25143e-08 -4.18782e-09 -2.14205e-09 -4.89154e-09 -3.89467e-08 -1.20305e-09 -8.62566e-08 -1.45279e-08
          -1.55967e-09 -7.86337e-09 -2.76218e-09 -7.8707e-09 -5.21077e-09 -5.40183e-09 -7.53016e-09 -1.80483e-08 -3.71005e-09 -2.88425e-09 -6.50955e-09 -3.95876e-08
          -8.00623e-10 -8.25603e-08 -1.95144e-08 -5.4466e-09 -4.3152e-09 -1.86077e-09 -6.92662e-09 -7.43492e-09 -4.50331e-09 -9.95853e-09 -1.24189e-08 -3.00379e-09
          -1.76376e-09 -7.24742e-09 -4.01421e-08 -1.05169e-09 -7.27624e-08 -2.26531e-08 -8.90398e-09 -4.85519e-09 -4.31482e-09 -9.53343e-09 -1.17604e-08 -3.50564e-09
          -1.09629e-08 -8.98865e-09 -2.3097e-09 -1.97121e-09 -9.4311e-09 -3.55987e-08 -2.45772e-09 -5.92114e-08 -2.34579e-08 -1.24065e-08 -3.35634e-09 -3.74228e-09
          -9.06022e-09 -1.82002e-08 -2.61872e-09 -1.11712e-08 -7.36604e-09 -1.35679e-09 -1.84616e-09 -1.41955e-08 -2.64449e-08 -3.54712e-09 -4.69827e-08 -2.5668e-08
          -1.7146e-08 -3.02956e-09 -3.23109e-09 -6.1168e-09 -2.27605e-08 -2.1008e-09 -1.04015e-08 -5.96798e-09 -1.53561e-09 -1.45866e-09 -1.77865e-08 -1.76734e-08
          -3.63503e-09 -3.44832e-08 -2.63204e-08 -2.63098e-08 -3.12094e-09 -3.42542e-09 -7.15925e-09 -2.6291e-08 -2.32216e-09 -8.7302e-09 -4.14591e-09 -1.23315e-09
          -1.17926e-09 -1.89767e-08 -1.09035e-08 -3.41674e-09 -2.5877e-08 -1.95658e-08 -4.37805e-08 -3.15735e-09 -3.20069e-09 -8.76469e-09 -2.79016e-08 -2.92087e-09
          -6.86032e-09 -3.30904e-09 -1.424e-09 -1.14733e-09 -1.81946e-08 -7.05593e-09 -3.31944e-09 -2.08049e-08 -9.73478e-09 -5.72344e-08 -3.47101e-09 -3.973e-09
          -1.07471e-08 -2.95098e-08 -3.2566e-09 -4.5331e-09 -2.24818e-09 -1.58317e-09 -1.30669e-09 -1.43258e-08 -6.19578e-09 -3.68439e-09 -1.98566e-08 -6.16783e-09
          -6.00525e-08 -4.41444e-09 -6.03055e-09 -1.20445e-08 -3.16147e-08 -4.61874e-09 -2.22817e-09 -1.2103e-09 -1.11865e-09 -1.20508e-09 -8.26577e-09 -5.66612e-09
          -3.96831e-09 -2.12597e-08 -5.96557e-09 -5.37528e-08 -7.31455e-09 -1.04172e-08 -1.67022e-08 -3.35164e-08 -5.83316e-09 -6.90577e-10 -5.13904e-10 -3.82953e-10
          -3.85884e-10 -2.28237e-09 -2.43501e-09 -1.98643e-09 -1.2297e-08 -6.1684e-09 -3.12576e-08 -1.33914e-08 -1.17263e-08 -1.33682e-08 -1.86439e-08 -3.13099e-09
        </DataArray>
        <DataArray type="Float32" Name="z[0]" NumberOfComponents="1" format="ascii">
          0.150578 0.150579 0.15058 0.150582 0.150582 0.150583 0.150584 0.150585 0.150585 0.150586 0.150587 0.150588
          0.150589 0.150591 0.150596 0.150581 0.150582 0.150583 0.150585 0.150586 0.150587 0.150587 0.150588 0.150588
          0.150589 0.15059 0.150591 0.150593 0.150595 0.150599 0.150584 0.150585 0.150587 0.150588 0.150589 0.15059
          0.15059 0.150591 0.150592 0.150593 0.150593 0.150595 0.150596 0.150598 0.150602 0.150588 0.150589 0.15059
          0.150591 0.150592 0.150593 0.150594 0.150594 0.150595 0.150596 0.150597 0.150598 0.150599 0.150601 0.150605
          0.150591 0.150592 0.150593 0.150594 0.150595 0.150596 0.150597 0.150606 0.150598 0.150599 0.1506 0.150601
          0.150602 0.150604 0.150609 0.150594 0.150595 0.150596 0.150597 0.150598 0.150599 0.15061 0.279274 0.150601
          0.150602 0.150603 0.150604 0.150605 0.150607 0.150612 0.150597 0.150598 0.150599 0.150601 0.150601 0.150604