<?xml version="1.0"?>
<VTKFile type="UnstructuredGrid" version="0.1" byte_order="LittleEndian">
  <UnstructuredGrid>
    <Piece NumberOfCells="360" NumberOfPoints="800">
      <CellData Scalars="pressure[0]">
        <DataArray type="Float32" Name="pressure[0]" NumberOfComponents="1" format="ascii">
          2.09764e+07 2.0991e+07 2.18205e+07 2.26353e+07 2.29581e+07 2.33603e+07 2.34973e+07 2.35471e+07 2.36076e+07 2.36717e+07 2.38515e+07 2.41664e+07
          2.44143e+07 2.50655e+07 2.58343e+07 2.10204e+07 2.10351e+07 2.19675e+07 2.28456e+07 2.31596e+07 2.35606e+07 2.36592e+07 2.36971e+07 2.37578e+07
          2.38299e+07 2.40907e+07 2.44183e+07 2.46087e+07 2.52729e+07 2.60018e+07 2.10647e+07 2.10792e+07 2.20286e+07 2.30158e+07 2.33093e+07 2.36803e+07
          2.37945e+07 2.38484e+07 2.39248e+07 2.40257e+07 2.43923e+07 2.4782e+07 2.49466e+07 2.55409e+07 2.62155e+07 2.11094e+07 2.11259e+07 2.18791e+07
          2.31634e+07 2.34715e+07 2.38561e+07 2.39734e+07 2.40292e+07 2.41558e+07 2.43196e+07 2.48032e+07 2.52266e+07 2.53807e+07 2.58534e+07 2.64812e+07
          2.11928e+07 2.12204e+07 1.9752e+07 2.33026e+07 2.38577e+07 2.44386e+07 2.45198e+07 2.45603e+07 2.46585e+07 2.49117e+07 2.53249e+07 2.56733e+07
          2.58004e+07 2.61965e+07 2.67401e+07 2.13809e+07 2.1424e+07 2.16043e+07 2.40018e+07 2.45043e+07 2.49639e+07 2.50196e+07 2.50699e+07 2.52095e+07
          2.59776e+07 2.59914e+07 2.60411e+07 2.61736e+07 2.65413e+07 2.70285e+07 2.16174e+07 2.16664e+07 2.23238e+07 2.46982e+07 2.51344e+07 2.55031e+07
          2.55646e+07 2.56313e+07 2.57172e+07 2.60233e+07 2.62534e+07 2.63233e+07 2.64628e+07 2.69063e+07 2.74264e+07 2.19507e+07 2.20041e+07 2.29903e+07
          2.50784e+07 2.56333e+07 2.59634e+07 2.60178e+07 2.6067e+07 2.61534e+07 2.63543e+07 2.65052e+07 2.65667e+07 2.67715e+07 2.72769e+07 2.79724e+07
          2.24279e+07 2.24919e+07 2.36344e+07 2.49054e+07 2.60765e+07 2.63963e+07 2.64924e+07 2.65825e+07 2.66207e+07 2.67049e+07 2.67685e+07 2.67979e+07
          2.70186e+07 2.76895e+07 2.85142e+07 2.29973e+07 2.30998e+07 2.38453e+07 2.46119e+07 2.65463e+07 2.67852e+07 2.69972e+07 2.7191e+07 2.70956e+07
          2.70704e+07 2.70807e+07 2.71086e+07 2.73535e+07 2.81104e+07 2.88377e+07 2.38086e+07 2.39598e+07 2.45086e+07 2.50487e+07 2.69001e+07 2.70793e+07
          2.74172e+07 2.77071e+07 2.75481e+07 2.74592e+07 2.74053e+07 2.74255e+07 2.76424e+07 2.84881e+07 2.9138e+07 2.49496e+07 2.52241e+07 2.54005e+07
          2.57848e+07 2.72601e+07 2.73699e+07 2.78485e+07 2.82373e+07 2.8287e+07 2.79279e+07 2.78957e+07 2.80434e+07 2.85459e+07 2.90084e+07 2.98681e+07
          2.61167e+07 2.61514e+07 2.61547e+07 2.64863e+07 2.77446e+07 2.78547e+07 2.83679e+07 2.8818e+07 2.89131e+07 2.89081e+07 2.88775e+07 2.90964e+07
          2.95867e+07 3.03604e+07 3.05155e+07 2.70289e+07 2.70635e+07 2.6875e+07 2.76366e+07 2.85447e+07 2.86348e+07 2.90597e+07 2.93962e+07 2.94642e+07
          2.95449e+07 2.96174e+07 3.00628e+07 3.0661e+07 3.11284e+07 3.09237e+07 2.77516e+07 2.77549e+07 2.77853e+07 2.88676e+07 2.93025e+07 2.93622e+07
          2.96466e+07 2.98508e+07 2.9901e+07 2.99786e+07 3.01276e+07 3.08255e+07 3.13689e+07 3.15372e+07 3.14061e+07 2.83988e+07 2.84242e+07 2.85196e+07
          2.95372e+07 2.97613e+07 2.98153e+07 3.00173e+07 3.01509e+07 3.01992e+07 3.02704e+07 3.05448e+07 3.12145e+07 3.17136e+07 3.20032e+07 3.18613e+07
          2.90663e+07 2.91176e+07 2.9498e+07 3.00235e+07 3.01391e+07 3.0178e+07 3.02851e+07 3.03791e+07 3.04263e+07 3.0488e+07 3.08493e+07 3.16461e+07
          3.21842e+07 3.24674e+07 3.22784e+07 2.96066e+07 2.96662e+07 3.0021e+07 3.02906e+07 3.04089e+07 3.04532e+07 3.05375e+07 3.06084e+07 3.06575e+07
          3.07141e+07 3.11575e+07 3.19999e+07 3.255e+07 3.27831e+07 3.26937e+07 2.99105e+07 2.99761e+07 3.01866e+07 3.04893e+07 3.06464e+07 3.0694e+07
          3.07686e+07 3.08316e+07 3.0877e+07 3.09317e+07 3.1419e+07 3.235e+07 3.29135e+07 3.30902e+07 3.32609e+07 3.01555e+07 3.02138e+07 3.04025e+07
          3.07029e+07 3.08575e+07 3.09055e+07 3.09782e+07 3.10382e+07 3.1084e+07 3.11444e+07 3.16275e+07 3.26534e+07 3.32722e+07 3.3413e+07 3.38008e+07
          3.03629e+07 3.04285e+07 3.05791e+07 3.08568e+07 3.10479e+07 3.11004e+07 3.11785e+07 3.1242e+07 3.13023e+07 3.13779e+07 3.20595e+07 3.31569e+07
          3.36065e+07 3.37549e+07 3.42253e+07 3.05619e+07 3.06299e+07 3.07644e+07 3.10355e+07 3.12299e+07 3.12872e+07 3.13776e+07 3.14501e+07 3.15276e+07
          3.16143e+07 3.25332e+07 3.36735e+07 3.39525e+07 3.41311e+07 3.4639e+07 3.07443e+07 3.08067e+07 3.09677e+07 3.12527e+07 3.1412e+07 3.14774e+07
          3.15834e+07 3.16674e+07 3.17666e+07 3.1874e+07 3.29379e+07 3.41036e+07 3.43435e+07 3.45425e+07 3.49408e+07 3.09119e+07 3.09714e+07 3.1113e+07
          3.13983e+07 3.16013e+07 3.16682e+07 3.17874e+07 3.1885e+07 3.20056e+07 3.2149e+07 3.33829e+07 3.448e+07 3.47458e+07 3.49269e+07 3.52098e+07
        </DataArray>
        <DataArray type="Float32" Name="pressure[1]" NumberOfComponents="1" format="ascii">
          2.09764e+07 2.0991e+07 2.18205e+07 2.26353e+07 2.29581e+07 2.33603e+07 2.34973e+07 2.35471e+07 2.36076e+07 2.36717e+07 2.38515e+07 2.41664e+07
          2.44143e+07 2.50655e+07 2.58343e+07 2.10204e+07 2.10351e+07 2.19675e+07 2.28456e+07 2.31596e+07 2.35606e+07 2.36592e+07 2.36971e+07 2.37578e+07
          2.38299e+07 2.40907e+07 2.44183e+07 2.46087e+07 2.52729e+07 2.60018e+07 2.10647e+07 2.10792e+07 2.20286e+07 2.30158e+07 2.33093e+07 2.36803e+07
          2.37945e+07 2.38484e+07 2.39248e+07 2.40257e+07 2.43923e+07 2.4782e+07 2.49466e+07 2.55409e+07 2.62155e+07 2.11094e+07 2.11259e+07 2.18791e+07
          2.31634e+07 2.34715e+07 2.38561e+07 2.39734e+07 2.40292e+07 2.41558e+07 2.43196e+07 2.48032e+07 2.52266e+07 2.53807e+07 2.58534e+07 2.64812e+07
          2.11928e+07 2.12204e+07 1.9752e+07 2.33026e+07 2.38577e+07 2.44386e+07 2.45198e+07 2.45603e+07 2.46585e+07 2.49117e+07 2.53249e+07 2.56733e+07
          2.58004e+07 2.61965e+07 2.67401e+07 2.13809e+07 2.1424e+07 2.16043e+07 2.40018e+07 2.45043e+07 2.49639e+07 2.50196e+07 2.50699e+07 2.52095e+07
          2.59776e+07 2.59914e+07 2.60411e+07 2.61736e+07 2.65413e+07 2.70285e+07 2.16174e+07 2.16664e+07 2.23238e+07 2.46982e+07 2.51344e+07 2.55031e+07
          2.55646e+07 2.56313e+07 2.57172e+07 2.60233e+07 2.62534e+07 2.63233e+07 2.64628e+07 2.69063e+07 2.74264e+07 2.19507e+07 2.20041e+07 2.29903e+07
          2.50784e+07 2.56333e+07 2.59634e+07 2.60178e+07 2.6067e+07 2.61534e+07 2.63543e+07 2.65052e+07 2.65667e+07 2.67715e+07 2.72769e+07 2.79724e+07
          2.24279e+07 2.24919e+07 2.36344e+07 2.49054e+07 2.60765e+07 2.63963e+07 2.64924e+07 2.65825e+07 2.66207e+07 2.67049e+07 2.67685e+07 2.67979e+07
          2.70186e+07 2.76895e+07 2.85142e+07 2.29973e+07 2.30998e+07 2.38453e+07 2.46119e+07 2.65463e+07 2.67852e+07 2.69972e+07 2.7191e+07 2.70956e+07
          2.70704e+07 2.70807e+07 2.71086e+07 2.73535e+07 2.81104e+07 2.88377e+07 2.38086e+07 2.39598e+07 2.45086e+07 2.50487e+07 2.69001e+07 2.70793e+07
          2.74172e+07 2.77071e+07 2.75481e+07 2.74592e+07 2.74053e+07 2.74255e+07 2.76424e+07 2.84881e+07 2.9138e+07 2.49496e+07 2.52241e+07 2.54005e+07
          2.57848e+07 2.72601e+07 2.73699e+07 2.78485e+07 2.82373e+07 2.8287e+07 2.79279e+07 2.78957e+07 2.80434e+07 2.85459e+07 2.90084e+07 2.98681e+07
          2.61167e+07 2.61514e+07 2.61547e+07 2.64863e+07 2.77446e+07 2.78547e+07 2.83679e+07 2.8818e+07 2.89131e+07 2.89081e+07 2.88775e+07 2.90964e+07
          2.95867e+07 3.03604e+07 3.05155e+07 2.70289e+07 2.70635e+07 2.6875e+07 2.76366e+07 2.85447e+07 2.86348e+07 2.90597e+07 2.93962e+07 2.94642e+07
          2.95449e+07 2.96174e+07 3.00628e+07 3.0661e+07 3.11284e+07 3.09237e+07 2.77516e+07 2.77549e+07 2.77853e+07 2.88676e+07 2.93025e+07 2.93622e+07
          2.96466e+07 2.98508e+07 2.9901e+07 2.99786e+07 3.01276e+07 3.08255e+07 3.13689e+07 3.15372e+07 3.14061e+07 2.83988e+07 2.84242e+07 2.85196e+07
          2.95372e+07 2.97613e+07 2.98153e+07 3.00173e+07 3.01509e+07 3.01992e+07 3.02704e+07 3.05448e+07 3.12145e+07 3.17136e+07 3.20032e+07 3.18613e+07
          2.90663e+07 2.91176e+07 2.9498e+07 3.00235e+07 3.01391e+07 3.0178e+07 3.02851e+07 3.03791e+07 3.04263e+07 3.0488e+07 3.08493e+07 3.16461e+07
          3.21842e+07 3.24674e+07 3.22784e+07 2.96066e+07 2.96662e+07 3.0021e+07 3.02906e+07 3.04089e+07 3.04532e+07 3.05375e+07 3.06084e+07 3.06575e+07
          3.07141e+07 3.11575e+07 3.19999e+07 3.255e+07 3.27831e+07 3.26937e+07 2.99105e+07 2.99761e+07 3.01866e+07 3.04893e+07 3.06464e+07 3.0694e+07
          3.07686e+07 3.08316e+07 3.0877e+07 3.09317e+07 3.1419e+07 3.235e+07 3.29135e+07 3.30902e+07 3.32609e+07 3.01555e+07 3.02138e+07 3.04025e+07
          3.07029e+07 3.08575e+07 3.09055e+07 3.09782e+07 3.10382e+07 3.1084e+07 3.11444e+07 3.16275e+07 3.26534e+07 3.32722e+07 3.3413e+07 3.38008e+07
          3.03629e+07 3.04285e+07 3.05791e+07 3.08568e+07 3.10479e+07 3.11004e+07 3.11785e+07 3.1242e+07 3.13023e+07 3.13779e+07 3.20595e+07 3.31569e+07
          3.36065e+07 3.37549e+07 3.42253e+07 3.05619e+07 3.06299e+07 3.07644e+07 3.10355e+07 3.12299e+07 3.12872e+07 3.13776e+07 3.14501e+07 3.15276e+07
          3.16143e+07 3.25332e+07 3.36735e+07 3.39525e+07 3.41311e+07 3.4639e+07 3.07443e+07 3.08067e+07 3.09677e+07 3.12527e+07 3.1412e+07 3.14774e+07
          3.15834e+07 3.16674e+07 3.17666e+07 3.1874e+07 3.29379e+07 3.41036e+07 3.43435e+07 3.45425e+07 3.49408e+07 3.09119e+07 3.09714e+07 3.1113e+07
          3.13983e+07 3.16013e+07 3.16682e+07 3.17874e+07 3.1885e+07 3.20056e+07 3.2149e+07 3.33829e+07 3.448e+07 3.47458e+07 3.49269e+07 3.52098e+07
        </DataArray>
        <DataArray type="Float32" Name="pressure[2]" NumberOfComponents="1" format="ascii">
          2.09764e+07 2.0991e+07 2.18205e+07 2.26353e+07 2.29581e+07 2.33603e+07 2.34973e+07 2.35471e+07 2.36076e+07 2.36717e+07 2.38515e+07 2.41664e+07
          2.44143e+07 2.50655e+07 2.58343e+07 2.10204e+07 2.10351e+07 2.19675e+07 2.28456e+07 2.31596e+07 2.35606e+07 2.36592e+07 2.36971e+07 2.37578e+07
          2.38299e+07 2.40907e+07 2.44183e+07 2.46087e+07 2.52729e+07 2.60018e+07 2.10647e+07 2.10792e+07 2.20286e+07 2.30158e+07 2.33093e+07 2.36803e+07
          2.37945e+07 2.38484e+07 2.39248e+07 2.40257e+07 2.43923e+07 2.4782e+07 2.49466e+07 2.55409e+07 2.62155e+07 2.11094e+07 2.11259e+07 2.18791e+07
          2.31634e+07 2.34715e+07 2.38561e+07 2.39734e+07 2.40292e+07 2.41558e+07 2.43196e+07 2.48032e+07 2.52266e+07 2.53807e+07 2.58534e+07 2.64812e+07
          2.11928e+07 2.12204e+07 1.9752e+07 2.33026e+07 2.38577e+07 2.44386e+07 2.45198e+07 2.45603e+07 2.46585e+07 2.49117e+07 2.53249e+07 2.56733e+07
          2.58004e+07 2.61965e+07 2.67401e+07 2.13809e+07 2.1424e+07 2.16043e+07 2.40018e+07 2.45043e+07 2.49639e+07 2.50196e+07 2.50699e+07 2.52095e+07
          2.59776e+07 2.59914e+07 2.60411e+07 2.61736e+07 2.65413e+07 2.70285e+07 2.16174e+07 2.16664e+07 2.23238e+07 2.46982e+07 2.51344e+07 2.55031e+07
          2.55646e+07 2.56313e+07 2.57172e+07 2.60233e+07 2.62534e+07 2.63233e+07 2.64628e+07 2.69063e+07 2.74264e+07 2.19507e+07 2.20041e+07 2.29903e+07
          2.50784e+07 2.56333e+07 2.59634e+07 2.60178e+07 2.6067e+07 2.61534e+07 2.63543e+07 2.65052e+07 2.65667e+07 2.67715e+07 2.72769e+07 2.79724e+07
          2.24279e+07 2.24919e+07 2.36344e+07 2.49054e+07 2.60765e+07 2.63963e+07 2.64924e+07 2.65825e+07 2.66207e+07 2.67049e+07 2.67685e+07 2.67979e+07
          2.70186e+07 2.76895e+07 2.85142e+07 2.29973e+07 2.30998e+07 2.38453e+07 2.46119e+07 2.65463e+07 2.67852e+07 2.69972e+07 2.7191e+07 2.70956e+07
          2.70704e+07 2.70807e+07 2.71086e+07 2.73535e+07 2.81104e+07 2.88377e+07 2.38086e+07 2.39598e+07 2.45086e+07 2.50487e+07 2.69001e+07 2.70793e+07
          2.74172e+07 2.77071e+07 2.75481e+07 2.74592e+07 2.74053e+07 2.74255e+07 2.76424e+07 2.84881e+07 2.9138e+07 2.49496e+07 2.52241e+07 2.54005e+07
          2.57848e+07 2.72601e+07 2.73699e+07 2.78485e+07 2.82373e+07 2.8287e+07 2.79279e+07 2.78957e+07 2.80434e+07 2.85459e+07 2.90084e+07 2.98681e+07
          2.61167e+07 2.61514e+07 2.61547e+07 2.64863e+07 2.77446e+07 2.78547e+07 2.83679e+07 2.8818e+07 2.89131e+07 2.89081e+07 2.88775e+07 2.90964e+07
          2.95867e+07 3.03604e+07 3.05155e+07 2.70289e+07 2.70635e+07 2.6875e+07 2.76366e+07 2.85447e+07 2.86348e+07 2.90597e+07 2.93962e+07 2.94642e+07
          2.95449e+07 2.96174e+07 3.00628e+07 3.0661e+07 3.11284e+07 3.09237e+07 2.77516e+07 2.77549e+07 2.77853e+07 2.88676e+07 2.93025e+07 2.93622e+07
          2.96466e+07 2.98508e+07 2.9901e+07 2.99786e+07 3.01276e+07 3.08255e+07 3.13689e+07 3.15372e+07 3.14061e+07 2.83988e+07 2.84242e+07 2.85196e+07
          2.95372e+07 2.97613e+07 2.98153e+07 3.00173e+07 3.01509e+07 3.01992e+07 3.02704e+07 3.05448e+07 3.12145e+07 3.17136e+07 3.20032e+07 3.18613e+07
          2.90663e+07 2.91176e+07 2.9498e+07 3.00235e+07 3.01391e+07 3.0178e+07 3.02851e+07 3.03791e+07 3.04263e+07 3.0488e+07 3.08493e+07 3.16461e+07
          3.21842e+07 3.24674e+07 3.22784e+07 2.96066e+07 2.96662e+07 3.0021e+07 3.02906e+07 3.04089e+07 3.04532e+07 3.05375e+07 3.06084e+07 3.06575e+07
          3.07141e+07 3.11575e+07 3.19999e+07 3.255e+07 3.27831e+07 3.26937e+07 2.99105e+07 2.99761e+07 3.01866e+07 3.04893e+07 3.06464e+07 3.0694e+07
          3.07686e+07 3.08316e+07 3.0877e+07 3.09317e+07 3.1419e+07 3.235e+07 3.29135e+07 3.30902e+07 3.32609e+07 3.01555e+07 3.02138e+07 3.04025e+07
          3.07029e+07 3.08575e+07 3.09055e+07 3.09782e+07 3.10382e+07 3.1084e+07 3.11444e+07 3.16275e+07 3.26534e+07 3.32722e+07 3.3413e+07 3.38008e+07
          3.03629e+07 3.04285e+07 3.05791e+07 3.08568e+07 3.10479e+07 3.11004e+07 3.11785e+07 3.1242e+07 3.13023e+07 3.13779e+07 3.20595e+07 3.31569e+07
          3.36065e+07 3.37549e+07 3.42253e+07 3.05619e+07 3.06299e+07 3.07644e+07 3.10355e+07 3.12299e+07 3.12872e+07 3.13776e+07 3.14501e+07 3.15276e+07
          3.16143e+07 3.25332e+07 3.36735e+07 3.39525e+07 3.41311e+07 3.4639e+07 3.07443e+07 3.08067e+07 3.09677e+07 3.12527e+07 3.1412e+07 3.14774e+07
          3.15834e+07 3.16674e+07 3.17666e+07 3.1874e+07 3.29379e+07 3.41036e+07 3.43435e+07 3.45425e+07 3.49408e+07 3.09119e+07 3.09714e+07 3.1113e+07
          3.13983e+07 3.16013e+07 3.16682e+07 3.17874e+07 3.1885e+07 3.20056e+07 3.2149e+07 3.33829e+07 3.448e+07 3.47458e+07 3.49269e+07 3.52098e+07
        </DataArray>
        <DataArray type="Float32" Name="velocity[0]" NumberOfComponents="1" format="ascii">
          -8.09842e-10 4.77164e-08 -7.39583e-11 -2.0896e-08 -6.62568e-10 -2.33769e-09 -3.72316e-09 -1.34495e-09 -2.59709e-09 -3.12746e-09 -2.32526e-09 -3.54948e-09
          -2.57966e-09 -7.30402e-10 -2.77621e-09 -4.45615e-09 1.39239e-07 3.88459e-10 -7.09273e-08 -7.57323e-10 -1.24829e-09 -2.5652e-09 -2.83059e-09 -7.97149e-09
          -9.25574e-09 -5.10177e-09 -1.49541e-08 -9.32369e-09 -2.2029e-09 -7.33345e-09 -1.70112e-08 2.08922e-07 1.52712e-09 -8.20551e-08 -5.53797e-10 -1.42647e-09
          -4.57263e-09 -6.90552e-09 -1.35475e-08 -1.5566e-08 -6.63261e-09 -3.72766e-08 -1.27766e-08 -4.43498e-09 -1.08695e-08 -2.00088e-08 2.3546e-07 8.53757e-09
          -2.66633e-08 -2.36493e-09 -1.58023e-08 -3.15752e-08 -3.07595e-08 -2.29533e-08 -2.43188e-08 -9.22641e-09 -6.65266e-08 -8.84404e-09 -6.11701e-09 -1.45744e-08
          -7.14054e-08 2.13385e-08 2.74065e-09 -6.29037e-08 -7.87004e-09 -4.30419e-08 -6.23073e-08 -5.99806e-08 -2.3251e-08 -2.82767e-08 -1.38573e-08 -1.06844e-07
          -4.32228e-09 -5.43368e-09 -1.7682e-08 -1.40262e-07 -1.77642e-07 -6.17105e-09 -9.54572e-08 -1.38678e-08 -9.68088e-08 -6.58339e-08 -9.07357e-08 -1.37647e-08
          -1.2813e-08 -1.17869e-08 -1.30831e-07 -2.38412e-09 -4.24384e-09 -1.96614e-08 -1.46442e-07 -1.58759e-07 -3.02239e-09 -3.10717e-08 -1.25394e-08 -1.5458e-07
          -4.95061e-08 -1.49346e-07 -8.55098e-09 -2.99838e-10 -9.63692e-09 -1.32933e-07 -1.80226e-09 -4.02349e-09 -2.09833e-08 -1.35895e-07 -1.4893e-07 -3.76867e-09
          -2.37032e-09 -7.44258e-09 -1.81873e-07 -2.80768e-08 -2.21895e-07 -5.59771e-09 -1.8566e-09 -1.40419e-08 -1.36417e-07 -1.3804e-09 -4.01494e-09 -2.25034e-08
          -1.22366e-07 -1.34144e-07 -2.6186e-09 4.01565e-09 -5.79193e-09 -1.96962e-07 -1.08463e-08 -2.88197e-07 -4.04734e-09 -2.09681e-09 -2.34783e-08 -1.24752e-07
          -1.23403e-09 -3.59325e-09 -2.45511e-08 -9.61694e-08 -1.18104e-07 -8.68794e-09 1.23128e-09 -5.09064e-09 -2.04674e-07 -3.73645e-09 -3.53972e-07 -3.71569e-09
          -2.71365e-09 -4.0452e-08 -9.77313e-08 -1.7547e-09 -3.22605e-09 -2.65919e-08 -6.45301e-08 -8.70379e-08 -3.1034e-08 -2.65493e-09 -4.90167e-09 -2.07098e-07
          -1.27911e-09 -4.16527e-07 -4.41886e-09 -4.63439e-09 -5.86485e-08 -5.9578e-08 -3.85858e-09 -4.72505e-09 -2.81348e-08 -4.14769e-08 -5.75631e-08 -5.16922e-08
          -2.64007e-09 -7.47316e-09 -2.12186e-07 -1.07251e-09 -4.56433e-07 -1.39894e-08 -6.15396e-09 -5.25054e-08 -3.35045e-08 -1.08208e-08 -7.71277e-09 -2.91053e-08
          -3.24742e-08 -6.09646e-08 -4.56266e-08 -2.79777e-09 -1.21819e-08 -2.01927e-07 -1.53873e-09 -4.6467e-07 -4.18103e-08 -6.61048e-09 -2.88987e-08 -1.93676e-08
          -2.34403e-08 -1.26952e-08 -2.94144e-08 -3.50172e-08 -7.37256e-08 -2.64774e-08 -3.12907e-09 -1.78212e-08 -1.86663e-07 -1.56828e-09 -4.35649e-07 -7.29614e-08
          -1.13125e-08 -1.63109e-08 -5.9385e-09 -2.89697e-08 -2.30458e-08 -2.79261e-08 -4.31636e-08 -6.9003e-08 -1.50171e-08 -2.75689e-09 -2.35157e-08 -1.83468e-07
          -1.10435e-09 -3.92303e-07 -8.79741e-08 -1.92821e-08 -1.13486e-08 -3.16182e-09 -2.72437e-08 -3.61367e-08 -2.47238e-08 -5.32727e-08 -5.48411e-08 -7.29866e-09
          -2.98314e-09 -2.92583e-08 -1.80654e-07 -1.35648e-09 -3.32389e-07 -9.17577e-08 -2.7733e-08 -7.13742e-09 -4.33985e-09 -3.09907e-08 -5.32602e-08 -2.06705e-08
          -5.67393e-08 -4.33441e-08 -3.41136e-09 -3.9525e-09 -4.14531e-08 -1.57922e-07 -2.62941e-09 -2.62858e-07 -9.23279e-08 -4.33786e-08 -3.07027e-09 -4.30885e-09
          -2.53142e-08 -7.9062e-08 -1.63311e-08 -5.53809e-08 -3.43317e-08 -1.45232e-09 -2.64392e-09 -6.12148e-08 -1.13578e-07 -4.04422e-09 -2.00863e-07 -9.95782e-08
          -6.53994e-08 -2.19637e-09 -2.92165e-09 -1.6454e-08 -1.03326e-07 -1.26941e-08 -4.9675e-08 -2.44043e-08 -1.00271e-09 -1.06765e-09 -7.6025e-08 -7.22452e-08
          -4.26139e-09 -1.43408e-07 -9.95482e-08 -1.02811e-07 -1.28128e-09 -2.41111e-09 -2.15232e-08 -1.18082e-07 -1.10831e-08 -4.10816e-08 -1.64063e-08 -1.23988e-09
          -5.09864e-10 -8.12841e-08 -4.12207e-08 -3.56593e-09 -1.04965e-07 -6.44295e-08 -1.78447e-07 -2.24106e-09 -3.42918e-09 -3.2014e-08 -1.25198e-07 -1.19043e-08
          -3.13476e-08 -1.10558e-08 -1.1571e-09 -1.19826e-10 -7.57845e-08 -2.16411e-08 -3.06697e-09 -8.26053e-08 -2.69852e-08 -2.47832e-07 -3.51659e-09 -6.31765e-09
          -3.89623e-08 -1.30817e-07 -1.36568e-08 -1.96949e-08 -5.62946e-09 -1.86124e-09 -7.10397e-10 -5.61608e-08 -1.47826e-08 -3.00827e-09 -7.81328e-08 -1.46601e-08
          -2.62179e-07 -3.21037e-09 -1.21445e-08 -4.26489e-08 -1.36513e-07 -1.69309e-08 -9.18119e-09 -2.2445e-09 -8.37396e-10 -4.68175e-10 -2.8119e-08 -1.10765e-08
          -2.47531e-09 -8.2645e-08 -1.18304e-08 -2.26004e-07 -4.45568e-09 -2.09425e-08 -5.58869e-08 -1.42191e-07 -2.20873e-08 -2.42947e-09 -5.04033e-10 1.89946e-10
          7.37338e-11 -6.66296e-09 -4.23517e-09 -9.07438e-10 -4.21656e-08 -5.51356e-09 -9.77376e-08 -2.93953e-09 -1.27048e-08 -3.33591e-08 -7.30683e-08 -1.23979e-08
        </DataArray>
        <DataArray type="Float32" Name="velocity[1]" NumberOfComponents="1" format="ascii">
          1.25859e-25 7.46527e-24 -1.33898e-25 -3.24748e-24 1.02971e-25 0 5.78623e-25 5.55914e-26 -2.81633e-25 5.50169e-24 -3.10735e-24 -1.72269e-25
          2.27509e-24 -1.00598e-24 4.34255e-25 4.4082e-25 6.77333e-24 -1.44358e-25 -4.52798e-24 1.54971e-25 7.82639e-24 1.77127e-24 5.79177e-25 -7.7367e-24
          4.51177e-25 0 1.58779e-25 -1.81348e-25 -4.6889e-27 2.76793e-25 1.51038e-24 -9.70539e-24 -2.60675e-24 2.79858e-24 4.79699e-25 0
          1.39022e-24 7.48887e-25 -4.34943e-25 0 6.75899e-24 -1.16081e-23 0 1.08165e-24 -2.68071e-25 -2.20729e-24 1.6364e-23 -2.14309e-24
          2.9226e-24 6.24069e-25 1.0146e-23 -2.26487e-23 2.88704e-23 -2.08271e-24 2.57484e-25 3.57188e-24 -4.30296e-24 2.56406e-24 -1.20319e-24 9.06856e-25
          4.54871e-26 -6.67599e-23 3.23387e-24 4.09235e-24 2.59239e-25 -2.18766e-24 -1.79758e-25 6.08154e-26 1.66933e-24 -4.41705e-24 3.99603e-24 -7.53278e-24
          3.58561e-26 1.42215e-25 -1.46395e-24 1.74111e-26 4.912e-24 -2.93237e-25 3.84238e-24 -1.25364e-25 -5.49405e-24 0 6.84804e-25 7.31762e-24
          -8.33173e-24 -1.67056e-24 1.02888e-23 -1.12858e-24 6.37365e-25 1.46826e-24 -6.96544e-25 5.15986e-25 0 3.26639e-24 -6.30543e-25 -1.04326e-23
          2.28297e-25 -4.36769e-26 -1.01133e-24 -6.80232e-26 1.44715e-25 1.02672e-25 -4.86985e-26 7.79944e-27 -1.59166e-24 -3.7978e-26 1.0907e-23 9.97562e-25
          1.95832e-24 1.31314e-25 1.23604e-23 3.17594e-26 6.48149e-26 3.44121e-25 4.06652e-26 -1.77462e-24 -9.91279e-24 4.4432e-26 -2.82968e-25 1.8279e-24
          -1.23027e-24 -7.20959e-24 2.09943e-25 -3.18808e-24 2.52736e-26 2.31942e-24 0 0 3.33248e-25 -4.47219e-26 2.13927e-25 3.57419e-24
          7.5716e-26 6.02507e-26 1.37834e-27 -8.92253e-24 1.44937e-24 1.59408e-24 -7.00337e-25 -2.28254e-24 2.69532e-24 -5.05625e-24 5.41687e-24 -2.07262e-25
          -3.7778e-26 2.05845e-25 3.19907e-24 -7.52079e-25 0 -1.98763e-24 2.3948e-24 9.61129e-26 2.25737e-24 -2.01521e-25 2.19739e-24 -2.8742e-27
          -3.29544e-24 8.60816e-24 3.74368e-26 2.00114e-25 -6.2486e-25 4.9453e-24 1.51334e-24 -1.61391e-25 8.06957e-26 -2.44059e-24 1.93227e-24 -9.42106e-25
          4.28611e-26 -1.41273e-24 -1.66524e-23 2.77541e-26 1.89927e-24 -3.07799e-24 1.05958e-26 1.17426e-24 1.84633e-24 -8.66689e-25 8.45467e-25 -6.70998e-26
          2.60837e-24 3.97446e-24 0 -4.27944e-26 4.41249e-25 1.92158e-24 4.73593e-26 -6.16431e-25 -2.89861e-24 5.2637e-27 -1.61958e-24 -6.73943e-25
          1.18081e-24 -7.09921e-25 -1.14899e-27 2.29542e-25 -3.63485e-27 6.41858e-25 -2.15217e-26 3.1686e-27 1.40364e-23 -3.78908e-26 -3.89281e-24 5.39498e-24
          -1.04976e-24 1.61056e-24 1.83023e-24 -3.67776e-24 7.72281e-28 -2.06368e-24 -2.8289e-24 -4.7731e-24 3.99466e-27 2.47494e-25 4.48045e-25 -9.30719e-28
          -3.19884e-26 -6.9708e-24 1.83387e-24 0 0 2.4897e-25 3.14194e-24 -4.00227e-25 3.84326e-24 0 1.00892e-24 0
          -2.82655e-25 4.46757e-25 -9.51567e-28 7.11729e-26 -6.46654e-24 1.18198e-27 9.30792e-28 8.35183e-28 3.36456e-24 7.83784e-28 -9.9747e-25 -1.77701e-24
          -5.55091e-28 7.78853e-25 1.20579e-27 -5.04362e-26 1.45182e-24 -8.23812e-24 0 -8.5245e-24 0 -6.23379e-28 2.49235e-24 -3.08934e-24
          -1.4147e-24 -1.24831e-28 1.10342e-24 0 2.97917e-24 0 3.3183e-25 1.41798e-24 3.97761e-24 9.1723e-26 -5.29605e-24 -4.54788e-24
          -1.73585e-24 1.47077e-25 4.29658e-26 3.21975e-28 -1.44479e-24 -8.69392e-25 3.5243e-24 -1.81918e-24 1.96926e-24 -1.5991e-24 6.82191e-25 6.95067e-24
          -5.79934e-26 -3.63299e-24 8.35504e-24 4.44705e-24 -2.6751e-24 5.79474e-26 7.49686e-25 -8.18834e-29 8.53057e-25 7.90764e-28 -3.20905e-24 6.97259e-25
          -1.45839e-24 2.71207e-25 -2.15076e-24 -9.86803e-26 -4.68147e-24 -4.22282e-24 7.67668e-24 2.177e-25 2.8668e-24 8.81099e-25 -2.87555e-25 -7.09102e-25
          -8.48729e-25 5.09419e-25 0 -3.23929e-26 -9.90748e-25 3.60971e-24 -6.34453e-24 6.34783e-24 -4.622e-24 2.50778e-28 0 0
          1.9885e-25 -3.32412e-28 1.12541e-24 -9.6223e-25 -1.01528e-24 9.33931e-25 -1.56973e-24 -6.4178e-25 -1.06198e-24 1.70741e-26 4.3882e-25 -3.02297e-24
          1.08905e-23 -2.07872e-25 -5.2319e-24 3.73989e-25 7.61314e-25 2.06091e-28 -6.70913e-25 -8.41824e-28 -9.60495e-28 9.30517e-26 -2.30003e-24 4.06236e-25
          -1.02639e-25 8.25855e-24 -3.42903e-24 0 -2.21209e-25 -6.94104e-25 5.32219e-24 -6.13697e-25 0 -3.78368e-25 -8.95442e-28 -3.09186e-25
          5.22778e-25 -1.03448e-24 -1.74741e-24 -2.84585e-25 -2.20145e-24 8.56872e-25 -2.37413e-23 0 2.37602e-23 -1.74451e-23 1.44276e-23 3.61984e-25
        </DataArray>
        <DataArray type="Float32" Name="velocity[2]" NumberOfComponents="1" format="ascii">
          -1.42504e-10 6.04472e-09 -4.82045e-09 -7.60022e-09 -3.11609e-09 -3.44819e-09 -3.64462e-09 -3.17493e-09 -3.33909e-09 -3.32247e-09 -3.05837e-09 -3.06818e-09
          -2.66278e-09 -2.10818e-09 -1.40894e-09 -6.51435e-10 2.26421e-08 -4.14813e-09 -1.5478e-08 -1.8459e-09 -2.30821e-09 -2.9905e-09 -3.24742e-09 -4.11519e-09
          -4.2189e-09 -3.47839e-09 -4.85962e-09 -3.25696e-09 -1.68284e-09 -1.881e-09 -2.40243e-09 3.67102e-08 -1.34704e-09 -1.72336e-08 -3.90094e-09 -4.03561e-09
          -4.38917e-09 -4.59036e-09 -5.61237e-09 -5.81719e-09 -4.16343e-09 -8.7731e-09 -3.77836e-09 -2.18677e-09 -2.49665e-09 -4.02634e-09 4.04442e-08 -2.71689e-10
          -9.0534e-09 -6.68833e-09 -8.6178e-09 -1.04828e-08 -9.32508e-09 -7.1162e-09 -6.87744e-09 -4.04509e-09 -1.33899e-08 -2.68641e-09 -2.39664e-09 -3.21463e-09
          -8.73616e-09 8.73777e-09 9.20035e-10 -1.37753e-08 -5.21565e-09 -1.05329e-08 -1.2965e-08 -1.20649e-08 -5.86213e-09 -7.69727e-09 -5.52047e-09 -2.04694e-08
          -1.11739e-09 -1.56798e-09 -3.4991e-09 -2.40244e-08 -3.07082e-08 -1.6295e-09 -1.98304e-08 -7.4833e-09 -2.0353e-08 -1.34164e-08 -1.75733e-08 -5.05404e-09
          -4.24967e-09 -2.0005e-09 -2.32062e-08 -7.64733e-10 -1.22474e-09 -3.73625e-09 -2.61214e-08 -2.87341e-08 -1.44153e-09 -7.63776e-09 -5.80943e-09 -3.01658e-08
          -1.10165e-08 -2.79087e-08 -2.29867e-09 -1.01771e-09 -2.48968e-09 -2.39181e-08 -6.36977e-10 -1.04222e-09 -3.86277e-09 -2.43458e-08 -2.73311e-08 -1.90771e-09
          -1.89126e-09 -3.28897e-09 -3.39261e-08 -6.87394e-09 -4.04485e-08 -1.44174e-09 -8.58956e-10 -2.96726e-09 -2.45356e-08 -8.15314e-10 -1.35581e-09 -4.30454e-09
          -2.20508e-08 -2.49606e-08 -2.24513e-09 -1.3334e-09 -3.19462e-09 -3.65011e-08 -3.43752e-09 -5.16462e-08 -7.69525e-10 -4.74883e-10 -3.76641e-09 -2.18522e-08
          -7.84899e-10 -1.25389e-09 -4.66801e-09 -1.81666e-08 -2.35774e-08 -3.96378e-09 -1.40777e-09 -2.41689e-09 -3.7686e-08 -2.33823e-09 -6.32227e-08 -5.1916e-10
          -3.20459e-10 -6.42157e-09 -1.6929e-08 -9.55312e-10 -1.22644e-09 -5.024e-09 -1.21862e-08 -1.80846e-08 -8.1244e-09 -1.90904e-09 -2.26484e-09 -3.77443e-08
          -1.32401e-09 -7.38184e-08 -3.92169e-10 -3.59418e-10 -9.25906e-09 -1.02211e-08 -1.65066e-09 -1.43306e-09 -5.13419e-09 -8.10905e-09 -1.20517e-08 -1.07988e-08
          -1.62774e-09 -2.38713e-09 -3.82871e-08 -9.58397e-10 -8.09235e-08 -2.03227e-09 -1.05545e-10 -9.26901e-09 -7.11977e-09 -3.00168e-09 -1.88473e-09 -5.27615e-09
          -5.6561e-09 -1.01191e-08 -7.98272e-09 -1.4766e-09 -2.96838e-09 -3.68536e-08 -2.08835e-09 -8.38524e-08 -8.27595e-09 -9.36883e-10 -5.37407e-09 -4.85911e-09
          -5.71867e-09 -2.73206e-09 -5.13758e-09 -6.07532e-09 -1.26552e-08 -4.78271e-09 -1.26852e-09 -3.70787e-09 -3.34608e-08 -9.71311e-10 -7.81749e-08 -1.41517e-08
          -2.36168e-09 -3.35174e-09 -1.96869e-09 -6.3307e-09 -4.28913e-09 -4.46993e-09 -7.16359e-09 -1.16581e-08 -2.91753e-09 -1.17074e-09 -4.6999e-09 -3.27657e-08
          -6.28744e-10 -7.0104e-08 -1.67785e-08 -4.36973e-09 -2.86008e-09 -1.45449e-09 -5.68301e-09 -6.18388e-09 -3.74265e-09 -9.16414e-09 -9.53628e-09 -1.75717e-09
          -1.24303e-09 -5.6919e-09 -3.23537e-08 -8.43376e-10 -6.03132e-08 -1.89158e-08 -7.35874e-09 -3.76795e-09 -3.43406e-09 -7.83016e-09 -9.72152e-09 -2.90715e-09
          -1.00035e-08 -7.89047e-09 -1.15908e-09 -1.29873e-09 -7.39854e-09 -2.83821e-08 -1.9211e-09 -4.85314e-08 -1.92484e-08 -1.02288e-08 -2.7157e-09 -3.03504e-09
          -7.4215e-09 -1.50119e-08 -2.16783e-09 -9.85819e-09 -6.43985e-09 -9.54316e-10 -1.35762e-09 -1.12076e-08 -2.10082e-08 -2.81172e-09 -3.83973e-08 -2.09767e-08
          -1.40271e-08 -2.46568e-09 -2.63196e-09 -5.01013e-09 -1.87628e-08 -1.73519e-09 -9.04609e-09 -5.17555e-09 -1.2755e-09 -1.21353e-09 -1.41955e-08 -1.40988e-08
          -2.92462e-09 -2.80949e-08 -2.14634e-08 -2.1468e-08 -2.54342e-09 -2.79353e-09 -5.86481e-09 -2.16599e-08 -1.91837e-09 -7.52787e-09 -3.56673e-09 -1.0483e-09
          -1.00237e-09 -1.523e-08 -8.7645e-09 -2.7787e-09 -2.10691e-08 -1.59523e-08 -3.57108e-08 -2.57544e-09 -2.61277e-09 -7.19193e-09 -2.29693e-08 -2.4073e-09
          -5.89205e-09 -2.84253e-09 -1.21752e-09 -9.80491e-10 -1.46526e-08 -5.71475e-09 -2.71385e-09 -1.6939e-08 -7.94451e-09 -4.67059e-08 -2.83334e-09 -3.24581e-09
          -8.82716e-09 -2.42782e-08 -2.68317e-09 -3.88598e-09 -1.92659e-09 -1.35361e-09 -1.11621e-09 -1.15827e-08 -5.04494e-09 -3.01728e-09 -1.61858e-08 -5.04026e-09
          -4.90338e-08 -3.60608e-09 -4.93293e-09 -9.89159e-09 -2.5993e-08 -3.80132e-09 -1.90745e-09 -1.03487e-09 -9.54882e-10 -1.02701e-09 -6.7233e-09 -4.62942e-09
          -3.25257e-09 -1.73621e-08 -4.87899e-09 -4.39143e-08 -5.97849e-09 -8.52731e-09 -1.36989e-08 -2.75369e-08 -4.79756e-09 -5.90704e-10 -4.38983e-10 -3.26182e-10
          -3.2749e-10 -1.86784e-09 -1.99347e-09 -1.62912e-09 -1.00532e-08 -5.04636e-09 -2.55478e-08 -1.0948e-08 -9.5949e-09 -1.09532e-08 -1.5308e-08 -2.57436e-09
        </DataArray>
        <DataArray type="Float32" Name="z[0]" NumberOfComponents="1" format="ascii">
          0.150578 0.150579 0.15058 0.150582 0.150582 0.150583 0.150584 0.150585 0.150585 0.150586 0.150587 0.150588
          0.150589 0.150591 0.150596 0.150581 0.150582 0.150583 0.150585 0.150586 0.150587 0.150587 0.150588 0.150588
          0.150589 0.15059 0.150591 0.150593 0.150595 0.150599 0.150584 0.150585 0.150587 0.150588 0.150589 0.15059
          0.150591 0.150592 0.150592 0.150593 0.150593 0.150595 0.150596 0.150598 0.150602 0.150588 0.150589 0.15059
          0.150591 0.154665 0.200689 0.237628 0.295165 0.150595 0.150596 0.150597 0.150598 0.150599 0.150601 0.150605
          0.150591 0.150592 0.172355 0.414176 0.415083 0.423376 0.40716 0.395447 0.150598 0.150599 0.1506 0.150601
          0.150602 0.150604 0.150609 0.150594 0.150595 0.181173 0.442727 0.459103 0.461778 0.443998 0.429051 0.150601