<?xml version="1.0"?>
<VTKFile type="UnstructuredGrid" version="0.1" byte_order="LittleEndian">
  <UnstructuredGrid>
    <Piece NumberOfCells="360" NumberOfPoints="800">
      <CellData Scalars="pressure[0]">
        <DataArray type="Float32" Name="pressure[0]" NumberOfComponents="1" format="ascii">
          2.10264e+07 2.1041e+07 2.19103e+07 2.27435e+07 2.30744e+07 2.34802e+07 2.36168e+07 2.36664e+07 2.37266e+07 2.37904e+07 2.39679e+07 2.42756e+07
          2.45166e+07 2.51578e+07 2.59139e+07 2.10705e+07 2.10852e+07 2.20587e+07 2.29533e+07 2.32763e+07 2.36797e+07 2.37777e+07 2.38154e+07 2.38759e+07
          2.39475e+07 2.42037e+07 2.45233e+07 2.47092e+07 2.53623e+07 2.60809e+07 2.11149e+07 2.11295e+07 2.21286e+07 2.31234e+07 2.34226e+07 2.37962e+07
          2.39104e+07 2.39642e+07 2.40405e+07 2.41405e+07 2.44987e+07 2.48778e+07 2.504e+07 2.56263e+07 2.6293e+07 2.11599e+07 2.11773e+07 2.19676e+07
          2.32709e+07 2.3582e+07 2.39681e+07 2.40856e+07 2.41422e+07 2.42679e+07 2.4429e+07 2.48991e+07 2.53108e+07 2.54658e+07 2.59348e+07 2.65562e+07
          2.12427e+07 2.12709e+07 1.97588e+07 2.34059e+07 2.39663e+07 2.45455e+07 2.46272e+07 2.46679e+07 2.47634e+07 2.50118e+07 2.5406e+07 2.57544e+07
          2.58812e+07 2.62741e+07 2.68128e+07 2.14298e+07 2.14731e+07 2.16658e+07 2.41103e+07 2.46117e+07 2.50691e+07 2.51245e+07 2.51738e+07 2.53143e+07
          2.61497e+07 2.61151e+07 2.61251e+07 2.62525e+07 2.66151e+07 2.70985e+07 2.1664e+07 2.1713e+07 2.23729e+07 2.48105e+07 2.52423e+07 2.56057e+07
          2.56657e+07 2.57305e+07 2.58118e+07 2.61153e+07 2.63359e+07 2.64024e+07 2.65377e+07 2.69753e+07 2.74916e+07 2.19922e+07 2.2045e+07 2.29667e+07
          2.52288e+07 2.57507e+07 2.60617e+07 2.61152e+07 2.61635e+07 2.62446e+07 2.64355e+07 2.65805e+07 2.66414e+07 2.68419e+07 2.73413e+07 2.80301e+07
          2.24611e+07 2.25245e+07 2.36077e+07 2.5114e+07 2.61935e+07 2.64938e+07 2.65875e+07 2.66753e+07 2.6706e+07 2.6779e+07 2.68384e+07 2.68688e+07
          2.70853e+07 2.77486e+07 2.85646e+07 2.30208e+07 2.31261e+07 2.38866e+07 2.46676e+07 2.66404e+07 2.68796e+07 2.70886e+07 2.72799e+07 2.71697e+07
          2.71361e+07 2.71428e+07 2.71721e+07 2.74144e+07 2.81648e+07 2.88848e+07 2.37984e+07 2.39921e+07 2.45727e+07 2.51208e+07 2.69925e+07 2.71723e+07
          2.75064e+07 2.77934e+07 2.76231e+07 2.75244e+07 2.74566e+07 2.74841e+07 2.77017e+07 2.85397e+07 2.92304e+07 2.524e+07 2.53946e+07 2.55314e+07
          2.5905e+07 2.73534e+07 2.74618e+07 2.79358e+07 2.83222e+07 2.83798e+07 2.80669e+07 2.80466e+07 2.81615e+07 2.86416e+07 2.90838e+07 2.99455e+07
          2.63309e+07 2.63641e+07 2.62483e+07 2.65784e+07 2.78343e+07 2.79437e+07 2.84516e+07 2.88977e+07 2.89935e+07 2.89964e+07 2.89809e+07 2.91916e+07
          2.96678e+07 3.04212e+07 3.05801e+07 2.7191e+07 2.72229e+07 2.69817e+07 2.78225e+07 2.86342e+07 2.87182e+07 2.91371e+07 2.94692e+07 2.95371e+07
          2.96189e+07 2.96945e+07 3.01327e+07 3.07183e+07 3.11765e+07 3.09827e+07 2.78858e+07 2.78894e+07 2.79066e+07 2.89616e+07 2.93789e+07 2.94375e+07
          2.97174e+07 2.99185e+07 2.99685e+07 3.00457e+07 3.01935e+07 3.08791e+07 3.1413e+07 3.15803e+07 3.14579e+07 2.85147e+07 2.85405e+07 2.86318e+07
          2.96151e+07 2.98322e+07 2.98858e+07 3.00844e+07 3.02159e+07 3.0264e+07 3.03348e+07 3.06051e+07 3.12631e+07 3.17538e+07 3.20399e+07 3.19066e+07
          2.91645e+07 2.92158e+07 2.95868e+07 3.00933e+07 3.0206e+07 3.02449e+07 3.03504e+07 3.0443e+07 3.04901e+07 3.05514e+07 3.09067e+07 3.16893e+07
          3.22181e+07 3.24978e+07 3.23182e+07 2.96919e+07 2.97512e+07 3.00959e+07 3.0358e+07 3.04739e+07 3.05182e+07 3.06013e+07 3.06711e+07 3.072e+07
          3.07764e+07 3.12121e+07 3.20391e+07 3.25796e+07 3.28103e+07 3.27279e+07 2.99912e+07 3.00564e+07 3.02619e+07 3.05566e+07 3.07101e+07 3.07575e+07
          3.08312e+07 3.08932e+07 3.09385e+07 3.0993e+07 3.14717e+07 3.23854e+07 3.2939e+07 3.31143e+07 3.32865e+07 3.02336e+07 3.02917e+07 3.04763e+07
          3.07691e+07 3.09202e+07 3.09681e+07 3.10399e+07 3.1099e+07 3.11446e+07 3.12048e+07 3.16792e+07 3.26859e+07 3.32936e+07 3.34337e+07 3.38185e+07
          3.04395e+07 3.05047e+07 3.06526e+07 3.09235e+07 3.11101e+07 3.11624e+07 3.12395e+07 3.1302e+07 3.13619e+07 3.14368e+07 3.21058e+07 3.31825e+07
          3.36243e+07 3.37719e+07 3.42374e+07 3.06373e+07 3.07049e+07 3.08372e+07 3.11018e+07 3.12917e+07 3.13488e+07 3.14378e+07 3.15093e+07 3.15859e+07
          3.16718e+07 3.25732e+07 3.36919e+07 3.39665e+07 3.41437e+07 3.46458e+07 3.0819e+07 3.08811e+07 3.10392e+07 3.13175e+07 3.14734e+07 3.15383e+07
          3.16427e+07 3.17254e+07 3.18234e+07 3.19295e+07 3.2973e+07 3.41165e+07 3.43527e+07 3.45499e+07 3.49447e+07 3.09864e+07 3.10457e+07 3.1185e+07
          3.14637e+07 3.16621e+07 3.17286e+07 3.18459e+07 3.19419e+07 3.20608e+07 3.22022e+07 3.34123e+07 3.44885e+07 3.47501e+07 3.49297e+07 3.52114e+07
        </DataArray>
        <DataArray type="Float32" Name="pressure[1]" NumberOfComponents="1" format="ascii">
          2.10264e+07 2.1041e+07 2.19103e+07 2.27435e+07 2.30744e+07 2.34802e+07 2.36168e+07 2.36664e+07 2.37266e+07 2.37904e+07 2.39679e+07 2.42756e+07
          2.45166e+07 2.51578e+07 2.59139e+07 2.10705e+07 2.10852e+07 2.20587e+07 2.29533e+07 2.32763e+07 2.36797e+07 2.37777e+07 2.38154e+07 2.38759e+07
          2.39475e+07 2.42037e+07 2.45233e+07 2.47092e+07 2.53623e+07 2.60809e+07 2.11149e+07 2.11295e+07 2.21286e+07 2.31234e+07 2.34226e+07 2.37962e+07
          2.39104e+07 2.39642e+07 2.40405e+07 2.41405e+07 2.44987e+07 2.48778e+07 2.504e+07 2.56263e+07 2.6293e+07 2.11599e+07 2.11773e+07 2.19676e+07
          2.32709e+07 2.3582e+07 2.39681e+07 2.40856e+07 2.41422e+07 2.42679e+07 2.4429e+07 2.48991e+07 2.53108e+07 2.54658e+07 2.59348e+07 2.65562e+07
          2.12427e+07 2.12709e+07 1.97588e+07 2.34059e+07 2.39663e+07 2.45455e+07 2.46272e+07 2.46679e+07 2.47634e+07 2.50118e+07 2.5406e+07 2.57544e+07
          2.58812e+07 2.62741e+07 2.68128e+07 2.14298e+07 2.14731e+07 2.16658e+07 2.41103e+07 2.46117e+07 2.50691e+07 2.51245e+07 2.51738e+07 2.53143e+07
          2.61497e+07 2.61151e+07 2.61251e+07 2.62525e+07 2.66151e+07 2.70985e+07 2.1664e+07 2.1713e+07 2.23729e+07 2.48105e+07 2.52423e+07 2.56057e+07
          2.56657e+07 2.57305e+07 2.58118e+07 2.61153e+07 2.63359e+07 2.64024e+07 2.65377e+07 2.69753e+07 2.74916e+07 2.19922e+07 2.2045e+07 2.29667e+07
          2.52288e+07 2.57507e+07 2.60617e+07 2.61152e+07 2.61635e+07 2.62446e+07 2.64355e+07 2.65805e+07 2.66414e+07 2.68419e+07 2.73413e+07 2.80301e+07
          2.24611e+07 2.25245e+07 2.36077e+07 2.5114e+07 2.61935e+07 2.64938e+07 2.65875e+07 2.66753e+07 2.6706e+07 2.6779e+07 2.68384e+07 2.68688e+07
          2.70853e+07 2.77486e+07 2.85646e+07 2.30208e+07 2.31261e+07 2.38866e+07 2.46676e+07 2.66404e+07 2.68796e+07 2.70886e+07 2.72799e+07 2.71697e+07
          2.71361e+07 2.71428e+07 2.71721e+07 2.74144e+07 2.81648e+07 2.88848e+07 2.37984e+07 2.39921e+07 2.45727e+07 2.51208e+07 2.69925e+07 2.71723e+07
          2.75064e+07 2.77934e+07 2.76231e+07 2.75244e+07 2.74566e+07 2.74841e+07 2.77017e+07 2.85397e+07 2.92304e+07 2.524e+07 2.53946e+07 2.55314e+07
          2.5905e+07 2.73534e+07 2.74618e+07 2.79358e+07 2.83222e+07 2.83798e+07 2.80669e+07 2.80466e+07 2.81615e+07 2.86416e+07 2.90838e+07 2.99455e+07
          2.63309e+07 2.63641e+07 2.62483e+07 2.65784e+07 2.78343e+07 2.79437e+07 2.84516e+07 2.88977e+07 2.89935e+07 2.89964e+07 2.89809e+07 2.91916e+07
          2.96678e+07 3.04212e+07 3.05801e+07 2.7191e+07 2.72229e+07 2.69817e+07 2.78225e+07 2.86342e+07 2.87182e+07 2.91371e+07 2.94692e+07 2.95371e+07
          2.96189e+07 2.96945e+07 3.01327e+07 3.07183e+07 3.11765e+07 3.09827e+07 2.78858e+07 2.78894e+07 2.79066e+07 2.89616e+07 2.93789e+07 2.94375e+07
          2.97174e+07 2.99185e+07 2.99685e+07 3.00457e+07 3.01935e+07 3.08791e+07 3.1413e+07 3.15803e+07 3.14579e+07 2.85147e+07 2.85405e+07 2.86318e+07
          2.96151e+07 2.98322e+07 2.98858e+07 3.00844e+07 3.02159e+07 3.0264e+07 3.03348e+07 3.06051e+07 3.12631e+07 3.17538e+07 3.20399e+07 3.19066e+07
          2.91645e+07 2.92158e+07 2.95868e+07 3.00933e+07 3.0206e+07 3.02449e+07 3.03504e+07 3.0443e+07 3.04901e+07 3.05514e+07 3.09067e+07 3.16893e+07
          3.22181e+07 3.24978e+07 3.23182e+07 2.96919e+07 2.97512e+07 3.00959e+07 3.0358e+07 3.04739e+07 3.05182e+07 3.06013e+07 3.06711e+07 3.072e+07
          3.07764e+07 3.12121e+07 3.20391e+07 3.25796e+07 3.28103e+07 3.27279e+07 2.99912e+07 3.00564e+07 3.02619e+07 3.05566e+07 3.07101e+07 3.07575e+07
          3.08312e+07 3.08932e+07 3.09385e+07 3.0993e+07 3.14717e+07 3.23854e+07 3.2939e+07 3.31143e+07 3.32865e+07 3.02336e+07 3.02917e+07 3.04763e+07
          3.07691e+07 3.09202e+07 3.09681e+07 3.10399e+07 3.1099e+07 3.11446e+07 3.12048e+07 3.16792e+07 3.26859e+07 3.32936e+07 3.34337e+07 3.38185e+07
          3.04395e+07 3.05047e+07 3.06526e+07 3.09235e+07 3.11101e+07 3.11624e+07 3.12395e+07 3.1302e+07 3.13619e+07 3.14368e+07 3.21058e+07 3.31825e+07
          3.36243e+07 3.37719e+07 3.42374e+07 3.06373e+07 3.07049e+07 3.08372e+07 3.11018e+07 3.12917e+07 3.13488e+07 3.14378e+07 3.15093e+07 3.15859e+07
          3.16718e+07 3.25732e+07 3.36919e+07 3.39665e+07 3.41437e+07 3.46458e+07 3.0819e+07 3.08811e+07 3.10392e+07 3.13175e+07 3.14734e+07 3.15383e+07
          3.16427e+07 3.17254e+07 3.18234e+07 3.19295e+07 3.2973e+07 3.41165e+07 3.43527e+07 3.45499e+07 3.49447e+07 3.09864e+07 3.10457e+07 3.1185e+07
          3.14637e+07 3.16621e+07 3.17286e+07 3.18459e+07 3.19419e+07 3.20608e+07 3.22022e+07 3.34123e+07 3.44885e+07 3.47501e+07 3.49297e+07 3.52114e+07
        </DataArray>
        <DataArray type="Float32" Name="pressure[2]" NumberOfComponents="1" format="ascii">
          2.10264e+07 2.1041e+07 2.19103e+07 2.27435e+07 2.30744e+07 2.34802e+07 2.36168e+07 2.36664e+07 2.37266e+07 2.37904e+07 2.39679e+07 2.42756e+07
          2.45166e+07 2.51578e+07 2.59139e+07 2.10705e+07 2.10852e+07 2.20587e+07 2.29533e+07 2.32763e+07 2.36797e+07 2.37777e+07 2.38154e+07 2.38759e+07
          2.39475e+07 2.42037e+07 2.45233e+07 2.47092e+07 2.53623e+07 2.60809e+07 2.11149e+07 2.11295e+07 2.21286e+07 2.31234e+07 2.34226e+07 2.37962e+07
          2.39104e+07 2.39642e+07 2.40405e+07 2.41405e+07 2.44987e+07 2.48778e+07 2.504e+07 2.56263e+07 2.6293e+07 2.11599e+07 2.11773e+07 2.19676e+07
          2.32709e+07 2.3582e+07 2.39681e+07 2.40856e+07 2.41422e+07 2.42679e+07 2.4429e+07 2.48991e+07 2.53108e+07 2.54658e+07 2.59348e+07 2.65562e+07
          2.12427e+07 2.12709e+07 1.97588e+07 2.34059e+07 2.39663e+07 2.45455e+07 2.46272e+07 2.46679e+07 2.47634e+07 2.50118e+07 2.5406e+07 2.57544e+07
          2.58812e+07 2.62741e+07 2.68128e+07 2.14298e+07 2.14731e+07 2.16658e+07 2.41103e+07 2.46117e+07 2.50691e+07 2.51245e+07 2.51738e+07 2.53143e+07
          2.61497e+07 2.61151e+07 2.61251e+07 2.62525e+07 2.66151e+07 2.70985e+07 2.1664e+07 2.1713e+07 2.23729e+07 2.48105e+07 2.52423e+07 2.56057e+07
          2.56657e+07 2.57305e+07 2.58118e+07 2.61153e+07 2.63359e+07 2.64024e+07 2.65377e+07 2.69753e+07 2.74916e+07 2.19922e+07 2.2045e+07 2.29667e+07
          2.52288e+07 2.57507e+07 2.60617e+07 2.61152e+07 2.61635e+07 2.62446e+07 2.64355e+07 2.65805e+07 2.66414e+07 2.68419e+07 2.73413e+07 2.80301e+07
          2.24611e+07 2.25245e+07 2.36077e+07 2.5114e+07 2.61935e+07 2.64938e+07 2.65875e+07 2.66753e+07 2.6706e+07 2.6779e+07 2.68384e+07 2.68688e+07
          2.70853e+07 2.77486e+07 2.85646e+07 2.30208e+07 2.31261e+07 2.38866e+07 2.46676e+07 2.66404e+07 2.68796e+07 2.70886e+07 2.72799e+07 2.71697e+07
          2.71361e+07 2.71428e+07 2.71721e+07 2.74144e+07 2.81648e+07 2.88848e+07 2.37984e+07 2.39921e+07 2.45727e+07 2.51208e+07 2.69925e+07 2.71723e+07
          2.75064e+07 2.77934e+07 2.76231e+07 2.75244e+07 2.74566e+07 2.74841e+07 2.77017e+07 2.85397e+07 2.92304e+07 2.524e+07 2.53946e+07 2.55314e+07
          2.5905e+07 2.73534e+07 2.74618e+07 2.79358e+07 2.83222e+07 2.83798e+07 2.80669e+07 2.80466e+07 2.81615e+07 2.86416e+07 2.90838e+07 2.99455e+07
          2.63309e+07 2.63641e+07 2.62483e+07 2.65784e+07 2.78343e+07 2.79437e+07 2.84516e+07 2.88977e+07 2.89935e+07 2.89964e+07 2.89809e+07 2.91916e+07
          2.96678e+07 3.04212e+07 3.05801e+07 2.7191e+07 2.72229e+07 2.69817e+07 2.78225e+07 2.86342e+07 2.87182e+07 2.91371e+07 2.94692e+07 2.95371e+07
          2.96189e+07 2.96945e+07 3.01327e+07 3.07183e+07 3.11765e+07 3.09827e+07 2.78858e+07 2.78894e+07 2.79066e+07 2.89616e+07 2.93789e+07 2.94375e+07
          2.97174e+07 2.99185e+07 2.99685e+07 3.00457e+07 3.01935e+07 3.08791e+07 3.1413e+07 3.15803e+07 3.14579e+07 2.85147e+07 2.85405e+07 2.86318e+07
          2.96151e+07 2.98322e+07 2.98858e+07 3.00844e+07 3.02159e+07 3.0264e+07 3.03348e+07 3.06051e+07 3.12631e+07 3.17538e+07 3.20399e+07 3.19066e+07
          2.91645e+07 2.92158e+07 2.95868e+07 3.00933e+07 3.0206e+07 3.02449e+07 3.03504e+07 3.0443e+07 3.04901e+07 3.05514e+07 3.09067e+07 3.16893e+07
          3.22181e+07 3.24978e+07 3.23182e+07 2.96919e+07 2.97512e+07 3.00959e+07 3.0358e+07 3.04739e+07 3.05182e+07 3.06013e+07 3.06711e+07 3.072e+07
          3.07764e+07 3.12121e+07 3.20391e+07 3.25796e+07 3.28103e+07 3.27279e+07 2.99912e+07 3.00564e+07 3.02619e+07 3.05566e+07 3.07101e+07 3.07575e+07
          3.08312e+07 3.08932e+07 3.09385e+07 3.0993e+07 3.14717e+07 3.23854e+07 3.2939e+07 3.31143e+07 3.32865e+07 3.02336e+07 3.02917e+07 3.04763e+07
          3.07691e+07 3.09202e+07 3.09681e+07 3.10399e+07 3.1099e+07 3.11446e+07 3.12048e+07 3.16792e+07 3.26859e+07 3.32936e+07 3.34337e+07 3.38185e+07
          3.04395e+07 3.05047e+07 3.06526e+07 3.09235e+07 3.11101e+07 3.11624e+07 3.12395e+07 3.1302e+07 3.13619e+07 3.14368e+07 3.21058e+07 3.31825e+07
          3.36243e+07 3.37719e+07 3.42374e+07 3.06373e+07 3.07049e+07 3.08372e+07 3.11018e+07 3.12917e+07 3.13488e+07 3.14378e+07 3.15093e+07 3.15859e+07
          3.16718e+07 3.25732e+07 3.36919e+07 3.39665e+07 3.41437e+07 3.46458e+07 3.0819e+07 3.08811e+07 3.10392e+07 3.13175e+07 3.14734e+07 3.15383e+07
          3.16427e+07 3.17254e+07 3.18234e+07 3.19295e+07 3.2973e+07 3.41165e+07 3.43527e+07 3.45499e+07 3.49447e+07 3.09864e+07 3.10457e+07 3.1185e+07
          3.14637e+07 3.16621e+07 3.17286e+07 3.18459e+07 3.19419e+07 3.20608e+07 3.22022e+07 3.34123e+07 3.44885e+07 3.47501e+07 3.49297e+07 3.52114e+07
        </DataArray>
        <DataArray type="Float32" Name="velocity[0]" NumberOfComponents="1" format="ascii">
          -1.05692e-09 5.17055e-08 -8.99384e-11 -2.13435e-08 -6.88316e-10 -2.3854e-09 -3.65499e-09 -1.22501e-09 -2.38328e-09 -3.00642e-09 -2.31321e-09 -3.50552e-09
          -2.55599e-09 -6.97723e-10 -2.71352e-09 -6.00468e-09 1.51836e-07 3.33112e-10 -7.25714e-08 -7.46349e-10 -1.08774e-09 -1.94896e-09 -2.35639e-09 -7.40626e-09
          -8.95458e-09 -5.04505e-09 -1.46818e-08 -9.17985e-09 -2.12417e-09 -7.17326e-09 -2.17742e-08 2.30716e-07 1.56197e-09 -8.28141e-08 -4.6163e-10 -9.79658e-10
          -3.53631e-09 -6.1144e-09 -1.30939e-08 -1.52547e-08 -6.52139e-09 -3.60508e-08 -1.24831e-08 -4.31944e-09 -1.06439e-08 -2.24828e-08 2.57179e-07 9.05098e-09
          -2.42122e-08 -2.3155e-09 -1.56629e-08 -3.08916e-08 -2.9887e-08 -2.295e-08 -2.42525e-08 -8.94838e-09 -6.51091e-08 -8.62825e-09 -5.9886e-09 -1.42866e-08
          -6.91252e-08 3.20625e-08 3.0205e-09 -6.1658e-08 -7.93112e-09 -4.32936e-08 -6.19633e-08 -5.94544e-08 -2.35423e-08 -2.93855e-08 -1.43356e-08 -1.07328e-07
          -4.26663e-09 -5.33095e-09 -1.73437e-08 -1.3716e-07 -1.73491e-07 -6.29873e-09 -9.64898e-08 -1.40326e-08 -9.72322e-08 -6.58061e-08 -9.10446e-08 -1.38068e-08
          -1.33738e-08 -1.13424e-08 -1.29442e-07 -2.34759e-09 -4.15865e-09 -1.92912e-08 -1.42788e-07 -1.54647e-07 -2.77454e-09 -3.15733e-08 -1.28437e-08 -1.55494e-07
          -4.94645e-08 -1.49376e-07 -8.36421e-09 2.33769e-10 -8.08627e-09 -1.27659e-07 -1.75395e-09 -3.93993e-09 -2.05919e-08 -1.32488e-07 -1.45086e-07 -3.51358e-09
          -2.97967e-09 -7.64049e-09 -1.82536e-07 -2.7893e-08 -2.20865e-07 -5.51822e-09 -1.7726e-09 -1.32799e-08 -1.30464e-07 -1.33953e-09 -3.93496e-09 -2.20879e-08
          -1.195e-07 -1.31609e-07 -3.00733e-09 3.61135e-09 -5.57525e-09 -1.95946e-07 -1.08068e-08 -2.8651e-07 -3.946e-09 -2.02101e-09 -2.24034e-08 -1.19312e-07
          -1.19431e-09 -3.52697e-09 -2.41029e-08 -9.28058e-08 -1.16824e-07 -9.59032e-09 1.13329e-09 -4.84777e-09 -2.02912e-07 -3.714e-09 -3.5178e-07 -3.65339e-09
          -2.66849e-09 -3.82602e-08 -9.36095e-08 -1.71963e-09 -3.17926e-09 -2.61103e-08 -5.66233e-08 -8.94957e-08 -3.35406e-08 -2.82826e-09 -4.88586e-09 -2.05868e-07
          -1.27297e-09 -4.14401e-07 -4.48059e-09 -5.22479e-09 -5.18122e-08 -5.98417e-08 -3.95395e-09 -4.83745e-09 -2.75502e-08 -3.44368e-08 -6.18753e-08 -5.18254e-08
          -2.67695e-09 -7.43807e-09 -2.11049e-07 -1.06656e-09 -4.53031e-07 -1.37787e-08 -6.54876e-09 -4.6001e-08 -3.50812e-08 -1.08189e-08 -7.80058e-09 -2.84363e-08
          -3.0194e-08 -5.99497e-08 -4.40467e-08 -2.54536e-09 -1.21564e-08 -2.00744e-07 -1.52611e-09 -4.58971e-07 -4.10269e-08 -6.31321e-09 -2.73216e-08 -1.89039e-08
          -2.29768e-08 -1.25057e-08 -2.87545e-08 -3.30967e-08 -6.95786e-08 -2.69412e-08 -2.80666e-09 -1.7638e-08 -1.85064e-07 -1.55135e-09 -4.29094e-07 -7.17515e-08
          -1.10414e-08 -1.56905e-08 -5.77651e-09 -2.83258e-08 -2.25983e-08 -2.73034e-08 -4.14773e-08 -6.62454e-08 -1.5053e-08 -2.58165e-09 -2.31099e-08 -1.81118e-07
          -1.08917e-09 -3.85876e-07 -8.65213e-08 -1.88997e-08 -1.1056e-08 -3.08965e-09 -2.66651e-08 -3.53982e-08 -2.41766e-08 -5.15144e-08 -5.30283e-08 -7.11265e-09
          -2.90676e-09 -2.87932e-08 -1.77954e-07 -1.33501e-09 -3.26833e-07 -9.02359e-08 -2.7264e-08 -6.98472e-09 -4.25043e-09 -3.03493e-08 -5.2158e-08 -2.02198e-08
          -5.49361e-08 -4.19835e-08 -3.28527e-09 -3.86424e-09 -4.07594e-08 -1.5539e-07 -2.58599e-09 -2.58482e-07 -9.07911e-08 -4.26688e-08 -3.0111e-09 -4.22241e-09
          -2.47965e-08 -7.7426e-08 -1.59796e-08 -5.36373e-08 -3.32684e-08 -1.40915e-09 -2.59451e-09 -6.01571e-08 -1.11682e-07 -3.97594e-09 -1.97488e-07 -9.78911e-08
          -6.42923e-08 -2.15483e-09 -2.86314e-09 -1.61176e-08 -1.01192e-07 -1.2424e-08 -4.81316e-08 -2.36525e-08 -9.8496e-10 -1.05384e-09 -7.46937e-08 -7.10024e-08
          -4.18776e-09 -1.40933e-07 -9.78145e-08 -1.00991e-07 -1.25701e-09 -2.36262e-09 -2.10842e-08 -1.15649e-07 -1.08494e-08 -3.98265e-08 -1.59098e-08 -1.20939e-09
          -5.03583e-10 -7.98634e-08 -4.05024e-08 -3.50364e-09 -1.03144e-07 -6.32775e-08 -1.75131e-07 -2.1971e-09 -3.36018e-09 -3.13593e-08 -1.22625e-07 -1.16553e-08
          -3.0402e-08 -1.07231e-08 -1.12774e-09 -1.21619e-10 -7.44666e-08 -2.12601e-08 -3.0128e-09 -8.11591e-08 -2.64884e-08 -2.43095e-07 -3.44673e-09 -6.19033e-09
          -3.81629e-08 -1.28134e-07 -1.33731e-08 -1.91076e-08 -5.46328e-09 -1.80911e-09 -6.92664e-10 -5.51764e-08 -1.45149e-08 -2.95273e-09 -7.66888e-08 -1.43815e-08
          -2.5708e-07 -3.14609e-09 -1.18982e-08 -4.17742e-08 -1.33718e-07 -1.6581e-08 -8.91114e-09 -2.18016e-09 -8.146e-10 -4.57036e-10 -2.76141e-08 -1.08677e-08
          -2.4277e-09 -8.10324e-08 -1.1599e-08 -2.21555e-07 -4.36603e-09 -2.05169e-08 -5.47469e-08 -1.39287e-07 -2.1633e-08 -2.3589e-09 -4.90038e-10 1.83381e-10
          7.03217e-11 -6.53698e-09 -4.15364e-09 -8.89577e-10 -4.13235e-08 -5.40435e-09 -9.58022e-08 -2.88033e-09 -1.24465e-08 -3.26804e-08 -7.15772e-08 -1.21433e-08
        </DataArray>
        <DataArray type="Float32" Name="velocity[1]" NumberOfComponents="1" format="ascii">
          1.64258e-25 8.12022e-24 -8.93395e-26 -3.31703e-24 1.06972e-25 0 5.68028e-25 6.85489e-26 -2.27019e-25 5.53152e-24 -3.20454e-24 -1.3472e-25
          2.25796e-24 -9.94258e-25 4.2431e-25 6.04682e-25 7.46006e-24 -9.76715e-26 -4.6444e-24 9.44723e-26 8.04207e-24 1.64848e-24 4.92898e-25 -7.91559e-24
          3.51152e-25 0 1.24109e-25 -1.46875e-25 -4.9408e-27 2.71384e-25 1.84608e-24 -1.06559e-23 -2.83014e-24 3.05255e-24 3.7957e-25 0
          1.33734e-24 7.0658e-25 -4.73687e-25 0 6.70198e-24 -1.14689e-23 0 1.06363e-24 -2.63824e-25 -3.56195e-24 1.83053e-23 -2.21287e-24
          2.76684e-24 5.98345e-25 1.0499e-23 -2.30419e-23 2.93093e-23 -2.15184e-24 3.05496e-25 3.53698e-24 -4.21392e-24 2.57176e-24 -1.18515e-24 8.92536e-25
          2.09621e-26 -6.87307e-23 3.31899e-24 4.15775e-24 1.9528e-25 -2.27689e-24 -1.3353e-25 1.90332e-26 1.7518e-24 -4.42788e-24 4.33263e-24 -7.73841e-24
          3.54121e-26 1.39387e-25 -1.4362e-24 -9.71454e-28 4.83978e-24 -2.81714e-25 3.84189e-24 -9.75218e-26 -5.60719e-24 0 1.05837e-24 8.15993e-24
          -9.59613e-24 -3.22126e-24 1.09613e-23 -1.12228e-24 6.26874e-25 1.43978e-24 -6.8822e-25 5.58856e-25 0 3.35177e-24 -5.9092e-25 -1.06268e-23
          2.08048e-25 -1.28325e-25 -8.61562e-25 -6.34944e-26 1.76047e-25 1.2197e-25 -5.86771e-26 8.48639e-27 -1.56189e-24 -4.60944e-26 1.0642e-23 9.91743e-25
          1.80072e-24 9.52915e-26 1.25888e-23 3.64666e-26 9.37638e-26 3.63113e-25 4.72261e-26 -1.66832e-24 -9.46964e-24 5.20131e-26 -2.77995e-25 1.79438e-24
          -1.18621e-24 -7.24921e-24 8.84157e-26 -2.7488e-24 -9.42314e-27 2.2384e-24 0 0 3.6187e-25 -5.22283e-26 2.18754e-25 3.41768e-24
          8.83868e-26 5.96285e-26 1.00231e-27 -8.71994e-24 1.385e-24 1.63787e-24 -6.81013e-25 -2.29469e-24 2.66125e-24 -4.99368e-24 5.39507e-24 -2.338e-25
          -3.80099e-26 2.29297e-25 3.05062e-24 -7.44624e-25 0 -1.9515e-24 5.02455e-25 6.63214e-26 2.49935e-24 -2.11696e-25 2.22332e-24 -2.57957e-27
          -3.26457e-24 8.67274e-24 4.52584e-26 2.884e-25 -7.15768e-25 4.67766e-24 1.52712e-24 -1.34496e-25 6.72481e-26 -2.25514e-24 2.38791e-24 -3.3232e-25
          1.00052e-25 -1.38696e-24 -1.65536e-23 2.73533e-26 1.6689e-24 -2.88667e-24 1.34472e-25 9.54069e-25 1.73528e-24 -7.99284e-25 8.39583e-25 -6.74924e-26
          2.44057e-24 4.19391e-24 0 -2.54149e-26 4.5019e-25 1.90874e-24 4.646e-26 -7.42906e-25 -2.8628e-24 5.34927e-27 -1.55076e-24 -6.54763e-25
          1.14258e-24 -7.03282e-25 -1.10098e-27 2.68884e-25 -4.77105e-27 5.74906e-25 -3.40559e-26 2.74181e-27 1.40434e-23 -3.81769e-26 -3.89936e-24 5.33831e-24
          -1.08255e-24 1.54117e-24 1.78855e-24 -3.59692e-24 7.19901e-28 -2.01771e-24 -2.69726e-24 -4.61299e-24 5.17368e-27 2.25692e-25 4.47061e-25 -7.1197e-28
          -3.16841e-26 -6.89825e-24 1.81335e-24 0 0 2.42975e-25 3.07928e-24 -3.93173e-25 3.75817e-24 0 9.66331e-25 0
          -2.76218e-25 4.38157e-25 -7.32986e-28 6.98909e-26 -6.35767e-24 1.00625e-27 7.64547e-28 7.05235e-28 3.30062e-24 6.59673e-28 -9.78313e-25 -1.73806e-24
          -4.13968e-28 7.51074e-25 1.0854e-27 -4.93749e-26 1.42436e-24 -8.11272e-24 0 -8.36352e-24 0 -4.53024e-28 2.44437e-24 -3.0297e-24
          -1.38597e-24 -8.36481e-29 1.07981e-24 0 2.88728e-24 0 3.24547e-25 1.36941e-24 3.94337e-24 9.02211e-26 -5.21479e-24 -4.47735e-24
          -1.70389e-24 1.44195e-25 4.19754e-26 2.69471e-28 -1.41512e-24 -8.5102e-25 3.41593e-24 -1.75811e-24 1.90349e-24 -1.5456e-24 6.68779e-25 6.83178e-24
          -5.73217e-26 -3.57439e-24 8.21173e-24 4.35968e-24 -2.62234e-24 5.68773e-26 7.34348e-25 -1.12004e-28 8.35105e-25 6.60449e-28 -3.10735e-24 6.74767e-25
          -1.41247e-24 2.70085e-25 -2.11341e-24 -9.67309e-26 -4.59576e-24 -4.14906e-24 7.52345e-24 2.13453e-25 2.81005e-24 8.62848e-25 -2.82061e-25 -6.93944e-25
          -8.22328e-25 4.93712e-25 0 -3.13574e-26 -9.7412e-25 3.52531e-24 -6.19665e-24 6.19941e-24 -4.5249e-24 3.91997e-28 0 0
          1.94605e-25 -3.47085e-28 1.10208e-24 -9.32957e-25 -9.83593e-25 9.05353e-25 -1.52144e-24 -6.50203e-25 -1.04244e-24 1.69084e-26 4.23862e-25 -2.95762e-24
          1.06671e-23 -2.03738e-25 -5.12702e-24 3.66507e-25 7.45926e-25 1.60705e-28 -6.51014e-25 -6.95991e-28 -7.8776e-28 9.07245e-26 -2.26053e-24 3.98908e-25
          -1.00791e-25 8.07881e-24 -3.35616e-24 0 -2.16743e-25 -6.79957e-25 5.21578e-24 -6.01678e-25 0 -3.67261e-25 -7.40714e-28 -2.99959e-25
          5.07626e-25 -1.01508e-24 -1.7081e-24 -2.7859e-25 -2.16445e-24 8.399e-25 -2.32648e-23 0 2.3282e-23 -1.70923e-23 1.41343e-23 3.54705e-25
        </DataArray>
        <DataArray type="Float32" Name="velocity[2]" NumberOfComponents="1" format="ascii">
          -1.57203e-10 6.61768e-09 -5.11569e-09 -7.90344e-09 -3.28403e-09 -3.57827e-09 -3.72183e-09 -3.23103e-09 -3.36816e-09 -3.35127e-09 -3.08007e-09 -3.05444e-09
          -2.63044e-09 -2.06271e-09 -1.37742e-09 -8.41775e-10 2.48077e-08 -4.40628e-09 -1.59324e-08 -1.93866e-09 -2.35258e-09 -2.94811e-09 -3.23256e-09 -4.07313e-09
          -4.20076e-09 -3.47733e-09 -4.80272e-09 -3.21202e-09 -1.64353e-09 -1.84129e-09 -3.08561e-09 4.06477e-08 -1.4357e-09 -1.74981e-08 -4.06524e-09 -4.10413e-09
          -4.3239e-09 -4.55321e-09 -5.59758e-09 -5.77847e-09 -4.13084e-09 -8.54211e-09 -3.7123e-09 -2.14353e-09 -2.4472e-09 -4.74701e-09 4.39455e-08 -2.75014e-10
          -8.7789e-09 -6.87507e-09 -8.73664e-09 -1.0455e-08 -9.24151e-09 -7.14757e-09 -6.85509e-09 -3.9478e-09 -1.31056e-08 -2.64579e-09 -2.35785e-09 -3.15421e-09
          -8.34391e-09 1.0644e-08 9.71983e-10 -1.36215e-08 -5.29977e-09 -1.06224e-08 -1.29257e-08 -1.19678e-08 -5.90596e-09 -7.81486e-09 -5.52376e-09 -2.05541e-08
          -1.10489e-09 -1.54199e-09 -3.43399e-09 -2.35039e-08 -3.00116e-08 -1.67101e-09 -2.00468e-08 -7.54825e-09 -2.04313e-08 -1.3371e-08 -1.76138e-08 -5.2714e-09
          -4.40594e-09 -1.58272e-09 -2.27471e-08 -7.45602e-10 -1.20231e-09 -3.66743e-09 -2.54735e-08 -2.80074e-08 -1.41412e-09 -7.74327e-09 -5.8549e-09 -3.02792e-08
          -1.09396e-08 -2.78545e-08 -2.23423e-09 -8.95665e-10 -2.13713e-09 -2.29252e-08 -6.18496e-10 -1.02268e-09 -3.79179e-09 -2.37227e-08 -2.65835e-08 -1.81219e-09
          -1.94829e-09 -3.22735e-09 -3.39639e-08 -6.77915e-09 -4.02142e-08 -1.39155e-09 -8.13322e-10 -2.80615e-09 -2.34664e-08 -7.96287e-10 -1.33256e-09 -4.22671e-09
          -2.15301e-08 -2.44431e-08 -2.13602e-09 -1.1965e-09 -2.99737e-09 -3.62246e-08 -3.38273e-09 -5.13106e-08 -7.24669e-10 -4.38348e-10 -3.58532e-09 -2.0905e-08
          -7.6729e-10 -1.23372e-09 -4.58419e-09 -1.76346e-08 -2.34537e-08 -4.18834e-09 -1.46423e-09 -2.393e-09 -3.7369e-08 -2.31321e-09 -6.28185e-08 -4.91683e-10
          -2.93441e-10 -6.06603e-09 -1.62384e-08 -9.4159e-10 -1.21037e-09 -4.93446e-09 -1.11009e-08 -1.8979e-08 -8.72764e-09 -1.95596e-09 -2.27466e-09 -3.75278e-08
          -1.31269e-09 -7.34276e-08 -3.78013e-10 -4.12154e-10 -8.23002e-09 -1.04827e-08 -1.66482e-09 -1.41969e-09 -5.00225e-09 -6.4334e-09 -1.20169e-08 -1.04408e-08
          -1.60225e-09 -2.3607e-09 -3.80748e-08 -9.51736e-10 -8.03576e-08 -2.08915e-09 -3.21643e-10 -8.03224e-09 -7.1759e-09 -2.93034e-09 -1.87292e-09 -5.15903e-09
          -5.24741e-09 -1.01198e-08 -7.88479e-09 -1.42682e-09 -2.96124e-09 -3.66351e-08 -2.07219e-09 -8.28553e-08 -8.18111e-09 -9.3756e-10 -5.10201e-09 -4.7275e-09
          -5.59077e-09 -2.68619e-09 -5.02365e-09 -5.7199e-09 -1.18548e-08 -4.77516e-09 -1.13558e-09 -3.60869e-09 -3.31468e-08 -9.59654e-10 -7.70117e-08 -1.39436e-08
          -2.33374e-09 -3.24784e-09 -1.92322e-09 -6.19074e-09 -4.20507e-09 -4.37039e-09 -6.86661e-09 -1.11397e-08 -2.88153e-09 -1.11494e-09 -4.59845e-09 -3.23332e-08
          -6.19365e-10 -6.89594e-08 -1.65093e-08 -4.29342e-09 -2.79751e-09 -1.42691e-09 -5.56581e-09 -6.06126e-09 -3.66133e-09 -8.85747e-09 -9.20974e-09 -1.70118e-09
          -1.20397e-09 -5.58732e-09 -3.18625e-08 -8.29382e-10 -5.93047e-08 -1.86013e-08 -7.23308e-09 -3.69456e-09 -3.36771e-09 -7.67192e-09 -9.52393e-09 -2.84494e-09
          -9.6849e-09 -7.64041e-09 -1.11532e-09 -1.25939e-09 -7.26195e-09 -2.79179e-08 -1.88348e-09 -4.77172e-08 -1.89216e-08 -1.0055e-08 -2.66358e-09 -2.97597e-09
          -7.27244e-09 -1.47044e-08 -2.12189e-09 -9.54724e-09 -6.23937e-09 -9.22834e-10 -1.31786e-09 -1.09978e-08 -2.06434e-08 -2.75225e-09 -3.77414e-08 -2.06137e-08
          -1.37838e-08 -2.41788e-09 -2.58037e-09 -4.90961e-09 -1.83773e-08 -1.6989e-09 -8.76402e-09 -5.0134e-09 -1.23561e-09 -1.1772e-09 -1.39317e-08 -1.38416e-08
          -2.85994e-09 -2.75966e-08 -2.10789e-08 -2.10818e-08 -2.49359e-09 -2.73839e-09 -5.74688e-09 -2.12149e-08 -1.87815e-09 -7.29724e-09 -3.45727e-09 -1.01624e-09
          -9.72108e-10 -1.49496e-08 -8.59698e-09 -2.71552e-09 -2.06882e-08 -1.56537e-08 -3.50419e-08 -2.52458e-09 -2.56086e-09 -7.0462e-09 -2.24983e-08 -2.35747e-09
          -5.71393e-09 -2.756e-09 -1.18069e-09 -9.50792e-10 -1.43848e-08 -5.60163e-09 -2.6535e-09 -1.66304e-08 -7.78958e-09 -4.58094e-08 -2.77703e-09 -3.181e-09
          -8.64748e-09 -2.37811e-08 -2.62768e-09 -3.76981e-09 -1.86873e-09 -1.31302e-09 -1.08266e-09 -1.1367e-08 -4.94284e-09 -2.95196e-09 -1.58783e-08 -4.93869e-09
          -4.80773e-08 -3.53406e-09 -4.83388e-09 -9.6902e-09 -2.54617e-08 -3.72313e-09 -1.85118e-09 -1.00436e-09 -9.26617e-10 -9.96622e-10 -6.5913e-09 -4.5339e-09
          -3.18291e-09 -1.7018e-08 -4.7795e-09 -4.30473e-08 -5.8587e-09 -8.35553e-09 -1.34211e-08 -2.69753e-08 -4.69919e-09 -5.73496e-10 -4.26237e-10 -3.1678e-10
          -3.18092e-10 -1.82894e-09 -1.95176e-09 -1.59424e-09 -9.85004e-09 -4.9433e-09 -2.50387e-08 -1.07283e-08 -9.40186e-09 -1.07319e-08 -1.49964e-08 -2.52167e-09
        </DataArray>
        <DataArray type="Float32" Name="z[0]" NumberOfComponents="1" format="ascii">
          0.150578 0.150579 0.15058 0.150582 0.150582 0.150583 0.150584 0.150585 0.150585 0.150586 0.150587 0.150588
          0.150589 0.150591 0.150596 0.150581 0.150582 0.150583 0.150585 0.150586 0.150587 0.150587 0.150588 0.150588
          0.150589 0.15059 0.150591 0.150593 0.150595 0.150599 0.150584 0.150585 0.150587 0.150588 0.150589 0.15059
          0.150591 0.150593 0.150592 0.150593 0.150593 0.150595 0.150596 0.150598 0.150602 0.150588 0.150589 0.15059
          0.150591 0.156023 0.208621 0.251023 0.31664 0.150595 0.150596 0.150597 0.150598 0.150599 0.150601 0.150605
          0.150591 0.150592 0.179634 0.417189 0.419307 0.428341 0.409762 0.396226 0.150598 0.150599 0.1506 0.150601
          0.150602 0.150604 0.150609 0.150594 0.150595 0.18688 0.447411 0.46222 0.464778 0.448302 0.43446 0.150601