<?xml version="1.0"?>
<VTKFile type="UnstructuredGrid" version="0.1" byte_order="LittleEndian">
  <UnstructuredGrid>
    <Piece NumberOfCells="360" NumberOfPoints="800">
      <CellData Scalars="pressure[0]">
        <DataArray type="Float32" Name="pressure[0]" NumberOfComponents="1" format="ascii">
          2.10069e+07 2.10215e+07 2.15493e+07 2.21018e+07 2.24693e+07 2.29021e+07 2.30393e+07 2.30899e+07 2.31512e+07 2.32204e+07 2.34266e+07 2.37662e+07
          2.40181e+07 2.46734e+07 2.5439e+07 2.10511e+07 2.10655e+07 2.16495e+07 2.22269e+07 2.26337e+07 2.30773e+07 2.31783e+07 2.32182e+07 2.32819e+07
          2.33616e+07 2.36507e+07 2.39946e+07 2.4197e+07 2.48664e+07 2.56063e+07 2.10959e+07 2.11096e+07 2.17165e+07 2.23675e+07 2.27228e+07 2.31365e+07
          2.32588e+07 2.33189e+07 2.34038e+07 2.35173e+07 2.39108e+07 2.43038e+07 2.45002e+07 2.51147e+07 2.58196e+07 2.11456e+07 2.11766e+07 2.15788e+07
          2.25003e+07 2.28362e+07 2.32251e+07 2.33359e+07 2.33901e+07 2.35288e+07 2.37167e+07 2.42467e+07 2.46888e+07 2.48783e+07 2.54112e+07 2.60869e+07
          2.12673e+07 2.12913e+07 1.97913e+07 2.25994e+07 2.30114e+07 2.34114e+07 2.34803e+07 2.35164e+07 2.37555e+07 2.41265e+07 2.46475e+07 2.5055e+07
          2.52501e+07 2.57479e+07 2.63497e+07 2.14676e+07 2.15105e+07 2.20501e+07 2.30895e+07 2.33945e+07 2.36584e+07 2.37005e+07 2.37531e+07 2.40796e+07
          2.45924e+07 2.51183e+07 2.53879e+07 2.55972e+07 2.60868e+07 2.66451e+07 2.1725e+07 2.17749e+07 2.26974e+07 2.35829e+07 2.37927e+07 2.3968e+07
          2.40847e+07 2.41905e+07 2.44559e+07 2.50708e+07 2.55666e+07 2.56828e+07 2.58811e+07 2.64544e+07 2.70591e+07 2.20965e+07 2.21504e+07 2.32169e+07
          2.40132e+07 2.42081e+07 2.45872e+07 2.46585e+07 2.47318e+07 2.49689e+07 2.55028e+07 2.58638e+07 2.595e+07 2.62148e+07 2.68351e+07 2.76334e+07
          2.26404e+07 2.27033e+07 2.36707e+07 2.44805e+07 2.47346e+07 2.50937e+07 2.52314e+07 2.53748e+07 2.55939e+07 2.59798e+07 2.61748e+07 2.62093e+07
          2.64789e+07 2.72673e+07 2.82077e+07 2.33014e+07 2.34073e+07 2.40361e+07 2.47324e+07 2.5219e+07 2.55316e+07 2.58343e+07 2.61328e+07 2.62661e+07
          2.64543e+07 2.65535e+07 2.65839e+07 2.68659e+07 2.77004e+07 2.85471e+07 2.42537e+07 2.43959e+07 2.46698e+07 2.51959e+07 2.56329e+07 2.58524e+07
          2.63173e+07 2.6752e+07 2.6861e+07 2.69101e+07 2.69406e+07 2.69816e+07 2.72129e+07 2.80503e+07 2.87961e+07 2.49602e+07 2.50401e+07 2.51856e+07
          2.56038e+07 2.59843e+07 2.61675e+07 2.67945e+07 2.73359e+07 2.7369e+07 2.73562e+07 2.73392e+07 2.73773e+07 2.75802e+07 2.83943e+07 2.9139e+07
          2.54659e+07 2.55218e+07 2.55973e+07 2.5899e+07 2.66016e+07 2.6737e+07 2.74028e+07 2.7984e+07 2.80696e+07 2.78141e+07 2.77824e+07 2.78775e+07
          2.86301e+07 2.97377e+07 2.99374e+07 2.58644e+07 2.59236e+07 2.60835e+07 2.65043e+07 2.75689e+07 2.76791e+07 2.82207e+07 2.86434e+07 2.87104e+07
          2.87541e+07 2.875e+07 2.92592e+07 3.00607e+07 3.06815e+07 3.03911e+07 2.67646e+07 2.67685e+07 2.69637e+07 2.74735e+07 2.84631e+07 2.85511e+07
          2.89107e+07 2.91744e+07 2.92266e+07 2.93062e+07 2.94591e+07 3.02958e+07 3.09546e+07 3.11363e+07 3.0936e+07 2.75292e+07 2.7557e+07 2.77612e+07
          2.87455e+07 2.9035e+07 2.90946e+07 2.93477e+07 2.95139e+07 2.95647e+07 2.96425e+07 2.99551e+07 3.07459e+07 3.13341e+07 3.16602e+07 3.1448e+07
          2.82929e+07 2.8334e+07 2.84498e+07 2.93179e+07 2.94796e+07 2.95185e+07 2.96439e+07 2.97553e+07 2.98043e+07 2.98693e+07 3.02913e+07 3.12327e+07
          3.18649e+07 3.21828e+07 3.19148e+07 2.89116e+07 2.89698e+07 2.93327e+07 2.96403e+07 2.97757e+07 2.982e+07 2.99162e+07 2.9998e+07 3.00491e+07
          3.01081e+07 3.06288e+07 3.16244e+07 3.22704e+07 3.25284e+07 3.23792e+07 2.92334e+07 2.92999e+07 2.95244e+07 2.98586e+07 3.00314e+07 3.00792e+07
          3.01626e+07 3.02337e+07 3.02804e+07 3.0337e+07 3.09102e+07 3.20114e+07 3.26733e+07 3.2864e+07 3.30246e+07 2.94899e+07 2.95489e+07 2.97531e+07
          3.00849e+07 3.0254e+07 3.03024e+07 3.03828e+07 3.04498e+07 3.04968e+07 3.05603e+07 3.11282e+07 3.23426e+07 3.30704e+07 3.32181e+07 3.36375e+07
          2.97041e+07 2.97714e+07 2.99339e+07 3.02407e+07 3.04512e+07 3.0505e+07 3.05916e+07 3.06625e+07 3.07269e+07 3.08083e+07 3.16132e+07 3.29127e+07
          3.34383e+07 3.35951e+07 3.41128e+07 2.99087e+07 2.99788e+07 3.01234e+07 3.04234e+07 3.06382e+07 3.06977e+07 3.07988e+07 3.08804e+07 3.09652e+07
          3.10598e+07 3.21478e+07 3.34983e+07 3.38202e+07 3.4013e+07 3.45753e+07 3.00945e+07 3.01582e+07 3.03333e+07 3.06499e+07 3.08251e+07 3.08942e+07
          3.10139e+07 3.11092e+07 3.12199e+07 3.13391e+07 3.26e+07 3.39805e+07 3.42557e+07 3.44729e+07 3.49045e+07 3.02633e+07 3.03238e+07 3.04771e+07
          3.07949e+07 3.10204e+07 3.10914e+07 3.12267e+07 3.13381e+07 3.14743e+07 3.16365e+07 3.31003e+07 3.43988e+07 3.47049e+07 3.49007e+07 3.51945e+07
        </DataArray>
        <DataArray type="Float32" Name="pressure[1]" NumberOfComponents="1" format="ascii">
          2.10069e+07 2.10215e+07 2.15493e+07 2.21018e+07 2.24693e+07 2.29021e+07 2.30393e+07 2.30899e+07 2.31512e+07 2.32204e+07 2.34266e+07 2.37662e+07
          2.40181e+07 2.46734e+07 2.5439e+07 2.10511e+07 2.10655e+07 2.16495e+07 2.22269e+07 2.26337e+07 2.30773e+07 2.31783e+07 2.32182e+07 2.32819e+07
          2.33616e+07 2.36507e+07 2.39946e+07 2.4197e+07 2.48664e+07 2.56063e+07 2.10959e+07 2.11096e+07 2.17165e+07 2.23675e+07 2.27228e+07 2.31365e+07
          2.32588e+07 2.33189e+07 2.34038e+07 2.35173e+07 2.39108e+07 2.43038e+07 2.45002e+07 2.51147e+07 2.58196e+07 2.11456e+07 2.11766e+07 2.15788e+07
          2.25003e+07 2.28362e+07 2.32251e+07 2.33359e+07 2.33901e+07 2.35288e+07 2.37167e+07 2.42467e+07 2.46888e+07 2.48783e+07 2.54112e+07 2.60869e+07
          2.12673e+07 2.12913e+07 1.97913e+07 2.25994e+07 2.30114e+07 2.34114e+07 2.34803e+07 2.35164e+07 2.37555e+07 2.41265e+07 2.46475e+07 2.5055e+07
          2.52501e+07 2.57479e+07 2.63497e+07 2.14676e+07 2.15105e+07 2.20501e+07 2.30895e+07 2.33945e+07 2.36584e+07 2.37005e+07 2.37531e+07 2.40796e+07
          2.45924e+07 2.51183e+07 2.53879e+07 2.55972e+07 2.60868e+07 2.66451e+07 2.1725e+07 2.17749e+07 2.26974e+07 2.35829e+07 2.37927e+07 2.3968e+07
          2.40847e+07 2.41905e+07 2.44559e+07 2.50708e+07 2.55666e+07 2.56828e+07 2.58811e+07 2.64544e+07 2.70591e+07 2.20965e+07 2.21504e+07 2.32169e+07
          2.40132e+07 2.42081e+07 2.45872e+07 2.46585e+07 2.47318e+07 2.49689e+07 2.55028e+07 2.58638e+07 2.595e+07 2.62148e+07 2.68351e+07 2.76334e+07
          2.26404e+07 2.27033e+07 2.36707e+07 2.44805e+07 2.47346e+07 2.50937e+07 2.52314e+07 2.53748e+07 2.55939e+07 2.59798e+07 2.61748e+07 2.62093e+07
          2.64789e+07 2.72673e+07 2.82077e+07 2.33014e+07 2.34073e+07 2.40361e+07 2.47324e+07 2.5219e+07 2.55316e+07 2.58343e+07 2.61328e+07 2.62661e+07
          2.64543e+07 2.65535e+07 2.65839e+07 2.68659e+07 2.77004e+07 2.85471e+07 2.42537e+07 2.43959e+07 2.46698e+07 2.51959e+07 2.56329e+07 2.58524e+07
          2.63173e+07 2.6752e+07 2.6861e+07 2.69101e+07 2.69406e+07 2.69816e+07 2.72129e+07 2.80503e+07 2.87961e+07 2.49602e+07 2.50401e+07 2.51856e+07
          2.56038e+07 2.59843e+07 2.61675e+07 2.67945e+07 2.73359e+07 2.7369e+07 2.73562e+07 2.73392e+07 2.73773e+07 2.75802e+07 2.83943e+07 2.9139e+07
          2.54659e+07 2.55218e+07 2.55973e+07 2.5899e+07 2.66016e+07 2.6737e+07 2.74028e+07 2.7984e+07 2.80696e+07 2.78141e+07 2.77824e+07 2.78775e+07
          2.86301e+07 2.97377e+07 2.99374e+07 2.58644e+07 2.59236e+07 2.60835e+07 2.65043e+07 2.75689e+07 2.76791e+07 2.82207e+07 2.86434e+07 2.87104e+07
          2.87541e+07 2.875e+07 2.92592e+07 3.00607e+07 3.06815e+07 3.03911e+07 2.67646e+07 2.67685e+07 2.69637e+07 2.74735e+07 2.84631e+07 2.85511e+07
          2.89107e+07 2.91744e+07 2.92266e+07 2.93062e+07 2.94591e+07 3.02958e+07 3.09546e+07 3.11363e+07 3.0936e+07 2.75292e+07 2.7557e+07 2.77612e+07
          2.87455e+07 2.9035e+07 2.90946e+07 2.93477e+07 2.95139e+07 2.95647e+07 2.96425e+07 2.99551e+07 3.07459e+07 3.13341e+07 3.16602e+07 3.1448e+07
          2.82929e+07 2.8334e+07 2.84498e+07 2.93179e+07 2.94796e+07 2.95185e+07 2.96439e+07 2.97553e+07 2.98043e+07 2.98693e+07 3.02913e+07 3.12327e+07
          3.18649e+07 3.21828e+07 3.19148e+07 2.89116e+07 2.89698e+07 2.93327e+07 2.96403e+07 2.97757e+07 2.982e+07 2.99162e+07 2.9998e+07 3.00491e+07
          3.01081e+07 3.06288e+07 3.16244e+07 3.22704e+07 3.25284e+07 3.23792e+07 2.92334e+07 2.92999e+07 2.95244e+07 2.98586e+07 3.00314e+07 3.00792e+07
          3.01626e+07 3.02337e+07 3.02804e+07 3.0337e+07 3.09102e+07 3.20114e+07 3.26733e+07 3.2864e+07 3.30246e+07 2.94899e+07 2.95489e+07 2.97531e+07
          3.00849e+07 3.0254e+07 3.03024e+07 3.03828e+07 3.04498e+07 3.04968e+07 3.05603e+07 3.11282e+07 3.23426e+07 3.30704e+07 3.32181e+07 3.36375e+07
          2.97041e+07 2.97714e+07 2.99339e+07 3.02407e+07 3.04512e+07 3.0505e+07 3.05916e+07 3.06625e+07 3.07269e+07 3.08083e+07 3.16132e+07 3.29127e+07
          3.34383e+07 3.35951e+07 3.41128e+07 2.99087e+07 2.99788e+07 3.01234e+07 3.04234e+07 3.06382e+07 3.06977e+07 3.07988e+07 3.08804e+07 3.09652e+07
          3.10598e+07 3.21478e+07 3.34983e+07 3.38202e+07 3.4013e+07 3.45753e+07 3.00945e+07 3.01582e+07 3.03333e+07 3.06499e+07 3.08251e+07 3.08942e+07
          3.10139e+07 3.11092e+07 3.12199e+07 3.13391e+07 3.26e+07 3.39805e+07 3.42557e+07 3.44729e+07 3.49045e+07 3.02633e+07 3.03238e+07 3.04771e+07
          3.07949e+07 3.10204e+07 3.10914e+07 3.12267e+07 3.13381e+07 3.14743e+07 3.16365e+07 3.31003e+07 3.43988e+07 3.47049e+07 3.49007e+07 3.51945e+07
        </DataArray>
        <DataArray type="Float32" Name="pressure[2]" NumberOfComponents="1" format="ascii">
          2.10069e+07 2.10215e+07 2.15493e+07 2.21018e+07 2.24693e+07 2.29021e+07 2.30393e+07 2.30899e+07 2.31512e+07 2.32204e+07 2.34266e+07 2.37662e+07
          2.40181e+07 2.46734e+07 2.5439e+07 2.10511e+07 2.10655e+07 2.16495e+07 2.22269e+07 2.26337e+07 2.30773e+07 2.31783e+07 2.32182e+07 2.32819e+07
          2.33616e+07 2.36507e+07 2.39946e+07 2.4197e+07 2.48664e+07 2.56063e+07 2.10959e+07 2.11096e+07 2.17165e+07 2.23675e+07 2.27228e+07 2.31365e+07
          2.32588e+07 2.33189e+07 2.34038e+07 2.35173e+07 2.39108e+07 2.43038e+07 2.45002e+07 2.51147e+07 2.58196e+07 2.11456e+07 2.11766e+07 2.15788e+07
          2.25003e+07 2.28362e+07 2.32251e+07 2.33359e+07 2.33901e+07 2.35288e+07 2.37167e+07 2.42467e+07 2.46888e+07 2.48783e+07 2.54112e+07 2.60869e+07
          2.12673e+07 2.12913e+07 1.97913e+07 2.25994e+07 2.30114e+07 2.34114e+07 2.34803e+07 2.35164e+07 2.37555e+07 2.41265e+07 2.46475e+07 2.5055e+07
          2.52501e+07 2.57479e+07 2.63497e+07 2.14676e+07 2.15105e+07 2.20501e+07 2.30895e+07 2.33945e+07 2.36584e+07 2.37005e+07 2.37531e+07 2.40796e+07
          2.45924e+07 2.51183e+07 2.53879e+07 2.55972e+07 2.60868e+07 2.66451e+07 2.1725e+07 2.17749e+07 2.26974e+07 2.35829e+07 2.37927e+07 2.3968e+07
          2.40847e+07 2.41905e+07 2.44559e+07 2.50708e+07 2.55666e+07 2.56828e+07 2.58811e+07 2.64544e+07 2.70591e+07 2.20965e+07 2.21504e+07 2.32169e+07
          2.40132e+07 2.42081e+07 2.45872e+07 2.46585e+07 2.47318e+07 2.49689e+07 2.55028e+07 2.58638e+07 2.595e+07 2.62148e+07 2.68351e+07 2.76334e+07
          2.26404e+07 2.27033e+07 2.36707e+07 2.44805e+07 2.47346e+07 2.50937e+07 2.52314e+07 2.53748e+07 2.55939e+07 2.59798e+07 2.61748e+07 2.62093e+07
          2.64789e+07 2.72673e+07 2.82077e+07 2.33014e+07 2.34073e+07 2.40361e+07 2.47324e+07 2.5219e+07 2.55316e+07 2.58343e+07 2.61328e+07 2.62661e+07
          2.64543e+07 2.65535e+07 2.65839e+07 2.68659e+07 2.77004e+07 2.85471e+07 2.42537e+07 2.43959e+07 2.46698e+07 2.51959e+07 2.56329e+07 2.58524e+07
          2.63173e+07 2.6752e+07 2.6861e+07 2.69101e+07 2.69406e+07 2.69816e+07 2.72129e+07 2.80503e+07 2.87961e+07 2.49602e+07 2.50401e+07 2.51856e+07
          2.56038e+07 2.59843e+07 2.61675e+07 2.67945e+07 2.73359e+07 2.7369e+07 2.73562e+07 2.73392e+07 2.73773e+07 2.75802e+07 2.83943e+07 2.9139e+07
          2.54659e+07 2.55218e+07 2.55973e+07 2.5899e+07 2.66016e+07 2.6737e+07 2.74028e+07 2.7984e+07 2.80696e+07 2.78141e+07 2.77824e+07 2.78775e+07
          2.86301e+07 2.97377e+07 2.99374e+07 2.58644e+07 2.59236e+07 2.60835e+07 2.65043e+07 2.75689e+07 2.76791e+07 2.82207e+07 2.86434e+07 2.87104e+07
          2.87541e+07 2.875e+07 2.92592e+07 3.00607e+07 3.06815e+07 3.03911e+07 2.67646e+07 2.67685e+07 2.69637e+07 2.74735e+07 2.84631e+07 2.85511e+07
          2.89107e+07 2.91744e+07 2.92266e+07 2.93062e+07 2.94591e+07 3.02958e+07 3.09546e+07 3.11363e+07 3.0936e+07 2.75292e+07 2.7557e+07 2.77612e+07
          2.87455e+07 2.9035e+07 2.90946e+07 2.93477e+07 2.95139e+07 2.95647e+07 2.96425e+07 2.99551e+07 3.07459e+07 3.13341e+07 3.16602e+07 3.1448e+07
          2.82929e+07 2.8334e+07 2.84498e+07 2.93179e+07 2.94796e+07 2.95185e+07 2.96439e+07 2.97553e+07 2.98043e+07 2.98693e+07 3.02913e+07 3.12327e+07
          3.18649e+07 3.21828e+07 3.19148e+07 2.89116e+07 2.89698e+07 2.93327e+07 2.96403e+07 2.97757e+07 2.982e+07 2.99162e+07 2.9998e+07 3.00491e+07
          3.01081e+07 3.06288e+07 3.16244e+07 3.22704e+07 3.25284e+07 3.23792e+07 2.92334e+07 2.92999e+07 2.95244e+07 2.98586e+07 3.00314e+07 3.00792e+07
          3.01626e+07 3.02337e+07 3.02804e+07 3.0337e+07 3.09102e+07 3.20114e+07 3.26733e+07 3.2864e+07 3.30246e+07 2.94899e+07 2.95489e+07 2.97531e+07
          3.00849e+07 3.0254e+07 3.03024e+07 3.03828e+07 3.04498e+07 3.04968e+07 3.05603e+07 3.11282e+07 3.23426e+07 3.30704e+07 3.32181e+07 3.36375e+07
          2.97041e+07 2.97714e+07 2.99339e+07 3.02407e+07 3.04512e+07 3.0505e+07 3.05916e+07 3.06625e+07 3.07269e+07 3.08083e+07 3.16132e+07 3.29127e+07
          3.34383e+07 3.35951e+07 3.41128e+07 2.99087e+07 2.99788e+07 3.01234e+07 3.04234e+07 3.06382e+07 3.06977e+07 3.07988e+07 3.08804e+07 3.09652e+07
          3.10598e+07 3.21478e+07 3.34983e+07 3.38202e+07 3.4013e+07 3.45753e+07 3.00945e+07 3.01582e+07 3.03333e+07 3.06499e+07 3.08251e+07 3.08942e+07
          3.10139e+07 3.11092e+07 3.12199e+07 3.13391e+07 3.26e+07 3.39805e+07 3.42557e+07 3.44729e+07 3.49045e+07 3.02633e+07 3.03238e+07 3.04771e+07
          3.07949e+07 3.10204e+07 3.10914e+07 3.12267e+07 3.13381e+07 3.14743e+07 3.16365e+07 3.31003e+07 3.43988e+07 3.47049e+07 3.49007e+07 3.51945e+07
        </DataArray>
        <DataArray type="Float32" Name="velocity[0]" NumberOfComponents="1" format="ascii">
          -9.88344e-10 3.13463e-08 2.64684e-10 3.49377e-10 -2.36854e-10 -1.17922e-09 3.46774e-10 1.74532e-09 2.88682e-09 -7.82382e-12 -1.91323e-09 -2.7107e-09
          -1.79718e-09 -5.69488e-10 -2.74135e-09 -1.12512e-08 1.00092e-07 6.06869e-10 -5.51484e-09 2.13213e-10 2.32808e-09 1.04275e-08 7.10265e-09 6.78343e-09
          -1.49144e-09 -3.96576e-09 -1.15007e-08 -7.05742e-09 -1.81068e-09 -7.28126e-09 -6.4034e-08 2.0408e-07 1.24712e-09 1.80082e-08 9.08637e-10 6.80404e-09
          1.9054e-08 1.45203e-08 5.33393e-09 -4.85111e-09 -4.74396e-09 -2.87931e-08 -1.01383e-08 -3.92475e-09 -1.09298e-08 -5.86222e-08 2.10796e-07 6.64804e-09
          9.23848e-08 -6.32631e-10 -2.17185e-09 8.01149e-09 1.23316e-08 -1.69129e-09 -1.23022e-08 -6.17553e-09 -4.99216e-08 -7.2044e-09 -5.73965e-09 -1.49308e-08
          -8.78508e-08 -4.49619e-08 -2.34616e-10 -1.01087e-07 -1.28038e-08 -4.03918e-08 -3.34628e-08 -1.29161e-08 -6.2028e-09 -1.33197e-08 -8.80411e-09 -8.58659e-08
          -3.66583e-09 -5.26815e-09 -1.84175e-08 -1.75488e-07 -2.18955e-07 -7.25983e-09 -2.35277e-07 -2.95679e-08 -1.50107e-07 -5.05172e-08 -6.04886e-08 -6.10141e-09
          -6.40966e-09 -1.37642e-08 -1.26452e-07 -2.18177e-09 -4.20007e-09 -2.07598e-08 -1.77667e-07 -1.91228e-07 -2.43267e-09 -8.23497e-08 -3.40836e-08 -2.31864e-07
          -4.42686e-08 -1.48218e-07 -7.13872e-09 -3.37945e-09 -1.7407e-08 -1.54871e-07 -1.91085e-09 -4.13782e-09 -2.23811e-08 -1.62961e-07 -1.77089e-07 -2.66395e-09
          -2.28831e-08 -3.47079e-08 -2.27666e-07 -3.57849e-08 -2.45551e-07 -7.58757e-09 -2.91965e-09 -1.97019e-08 -1.74022e-07 -1.5934e-09 -4.24848e-09 -2.4212e-08
          -1.47638e-07 -1.60574e-07 -3.19081e-09 -7.07601e-09 -3.46951e-08 -2.23858e-07 -1.28561e-08 -3.16149e-07 -6.20466e-09 -3.23563e-09 -3.26857e-08 -1.67785e-07
          -1.51859e-09 -3.80693e-09 -2.66327e-08 -1.19294e-07 -1.45234e-07 -1.05187e-08 -2.34547e-09 -3.05064e-08 -2.23345e-07 -4.27824e-09 -3.84859e-07 -5.75549e-09
          -3.69505e-09 -5.50933e-08 -1.4057e-07 -2.35398e-09 -3.10974e-09 -2.90673e-08 -8.66728e-08 -1.33693e-07 -2.0192e-08 -2.13662e-09 -2.84479e-08 -2.22839e-07
          -1.45501e-09 -4.3729e-07 -1.04815e-08 -5.14555e-09 -6.98322e-08 -1.10784e-07 -5.25582e-09 -3.28595e-09 -3.1317e-08 -6.65766e-08 -1.23151e-07 -2.44057e-08
          -1.02659e-09 -2.39439e-08 -2.34074e-07 -1.20385e-09 -4.73437e-07 -1.95367e-08 -8.87719e-09 -7.12765e-08 -7.35871e-08 -1.15671e-08 -6.42273e-09 -3.35254e-08
          -5.57322e-08 -1.16462e-07 -2.32171e-08 -2.5485e-09 -1.89555e-08 -2.29215e-07 -1.75073e-09 -5.0476e-07 -4.65215e-08 -1.14776e-08 -5.27374e-08 -3.15799e-08
          -2.71852e-08 -1.40092e-08 -3.46816e-08 -4.76671e-08 -1.1208e-07 -1.98534e-08 -7.64786e-09 -2.09052e-08 -2.1196e-07 -1.82366e-09 -4.97705e-07 -8.40794e-08
          -1.59742e-08 -2.67898e-08 -8.47826e-09 -3.60317e-08 -2.71491e-08 -3.31735e-08 -4.87292e-08 -9.28141e-08 -1.59276e-08 -8.25867e-09 -2.84022e-08 -2.14593e-07
          -1.323e-09 -4.60635e-07 -1.02844e-07 -2.42506e-08 -1.56915e-08 -4.11754e-09 -3.28841e-08 -4.28978e-08 -2.9489e-08 -5.7899e-08 -6.57793e-08 -1.22545e-08
          -4.95634e-09 -3.60131e-08 -2.18464e-07 -1.69057e-09 -3.94216e-07 -1.08253e-07 -3.28391e-08 -9.16493e-09 -5.31713e-09 -3.69013e-08 -6.33939e-08 -2.46449e-08
          -6.19103e-08 -4.86441e-08 -8.62978e-09 -5.39502e-09 -5.0767e-08 -1.92761e-07 -3.23396e-09 -3.13037e-07 -1.09576e-07 -5.10626e-08 -3.71229e-09 -5.16932e-09
          -3.02004e-08 -9.42017e-08 -1.94681e-08 -6.18243e-08 -3.87491e-08 -3.05032e-09 -3.98987e-09 -7.55398e-08 -1.39337e-07 -4.90739e-09 -2.3971e-07 -1.18807e-07
          -7.79717e-08 -2.6258e-09 -3.48937e-09 -1.96236e-08 -1.23151e-07 -1.51308e-08 -5.60959e-08 -2.77732e-08 -1.56232e-09 -1.44987e-09 -9.32738e-08 -8.85361e-08
          -5.16516e-09 -1.71757e-07 -1.19124e-07 -1.23005e-07 -1.53049e-09 -2.8768e-09 -2.56672e-08 -1.40757e-07 -1.32081e-08 -4.67139e-08 -1.87484e-08 -1.52525e-09
          -6.5796e-10 -9.92156e-08 -5.03006e-08 -4.31153e-09 -1.25961e-07 -7.71881e-08 -2.13578e-07 -2.67672e-09 -4.09166e-09 -3.81728e-08 -1.49252e-07 -1.41856e-08
          -3.57654e-08 -1.26269e-08 -1.37079e-09 -1.72413e-10 -9.22223e-08 -2.62868e-08 -3.69819e-09 -9.92135e-08 -3.23318e-08 -2.96451e-07 -4.19895e-09 -7.53772e-09
          -4.64507e-08 -1.55961e-07 -1.62748e-08 -2.25177e-08 -6.44875e-09 -2.15147e-09 -8.32386e-10 -6.81586e-08 -1.78695e-08 -3.6156e-09 -9.36985e-08 -1.75488e-08
          -3.13401e-07 -3.83189e-09 -1.44858e-08 -5.08461e-08 -1.62765e-07 -2.01784e-08 -1.05209e-08 -2.58295e-09 -9.70778e-10 -5.51287e-10 -3.4019e-08 -1.33333e-08
          -2.96721e-09 -9.88469e-08 -1.4142e-08 -2.69993e-07 -5.3174e-09 -2.49786e-08 -6.66448e-08 -1.69549e-07 -2.63277e-08 -2.78943e-09 -5.82826e-10 2.11539e-10
          7.72265e-11 -8.02065e-09 -5.08721e-09 -1.08608e-09 -5.03631e-08 -6.58625e-09 -1.1672e-07 -3.50799e-09 -1.51535e-08 -3.97853e-08 -8.71307e-08 -1.47789e-08
        </DataArray>
        <DataArray type="Float32" Name="velocity[1]" NumberOfComponents="1" format="ascii">
          1.536e-25 4.90387e-24 6.51661e-26 5.42972e-26 3.68099e-26 0 -5.38928e-26 -2.31695e-25 5.59386e-26 5.79144e-24 -3.76782e-24 4.65519e-26
          2.47395e-24 -9.88838e-25 4.25745e-25 1.44137e-24 5.79612e-24 5.97395e-26 -9.65665e-25 -1.80326e-25 7.2269e-24 1.31071e-24 4.06539e-25 -6.81924e-24
          -1.58669e-25 0 -4.56735e-26 5.225e-26 8.89716e-28 2.79517e-25 6.7617e-24 -8.10865e-24 -1.4857e-24 4.62143e-24 -1.92441e-25 0
          1.01989e-25 -6.37314e-25 -3.82204e-25 0 7.16262e-24 -1.11671e-23 0 1.15126e-24 -2.88128e-25 -1.51804e-23 2.02223e-23 -1.44559e-24
          -8.64084e-24 3.68726e-25 9.14014e-24 -2.19049e-23 2.43806e-23 -4.28611e-24 1.18772e-24 3.59237e-24 -4.73963e-24 3.20657e-24 -1.33868e-24 1.00327e-24
          -8.90853e-26 -6.08857e-23 5.7113e-24 9.89814e-24 -3.5215e-25 -4.77251e-24 9.73263e-26 -8.05405e-26 -1.50422e-25 -6.91681e-24 4.37831e-24 -8.08665e-24
          -3.71694e-28 1.30894e-25 -1.53493e-24 -1.22147e-25 6.80446e-24 -5.81866e-25 7.66036e-24 1.48327e-25 -1.27966e-23 0 -8.39008e-26 -8.99045e-26
          3.2811e-25 -4.81264e-25 5.74081e-24 -1.47304e-24 8.72233e-25 1.53406e-24 -9.77141e-25 1.11861e-24 0 7.81246e-24 -1.74917e-25 -8.02777e-24
          -4.69982e-26 -1.02971e-25 -3.66802e-24 4.81556e-27 5.77683e-29 -9.38855e-28 3.54758e-26 -2.78968e-28 -1.69138e-24 -1.73412e-25 1.31045e-23 1.26234e-24
          3.21349e-24 -4.85122e-26 1.90583e-23 4.43219e-27 -2.30417e-26 1.9526e-25 -3.24593e-26 -3.61413e-24 -1.29951e-23 -3.53263e-28 -3.71818e-25 1.97592e-24
          -1.41156e-24 -9.41689e-24 -4.64044e-26 -1.37679e-24 -3.52194e-25 3.49811e-24 0 0 -3.60164e-25 3.31973e-28 8.78657e-25 3.58265e-24
          -7.58799e-28 5.99555e-26 -5.30726e-28 -1.08564e-23 1.41429e-24 1.61229e-24 -1.00225e-25 -2.83495e-24 3.61295e-24 -6.68868e-24 5.60507e-24 4.35247e-25
          -5.52461e-26 -3.77116e-25 3.43651e-24 -8.40233e-25 0 -2.16312e-24 4.10061e-24 1.01982e-25 3.89992e-25 -2.30114e-25 2.27572e-24 1.88136e-27
          -4.25243e-24 5.10179e-24 6.88874e-25 1.70813e-25 -7.3207e-26 8.17313e-24 1.7736e-24 -3.18033e-25 1.59016e-25 -4.56017e-24 1.90187e-24 -2.59778e-25
          8.8478e-26 -2.69588e-24 -1.89133e-23 3.15454e-26 3.07383e-24 -2.71093e-24 -4.09854e-25 1.04929e-24 2.82501e-24 -1.95649e-24 1.07404e-24 -1.84368e-25
          4.10327e-24 9.09229e-24 0 -2.80977e-25 -9.5384e-26 2.21046e-24 5.28443e-26 1.80153e-24 -3.47458e-24 -3.2737e-28 -2.81964e-24 -9.84638e-25
          1.83986e-24 -7.05351e-25 -2.79135e-28 -7.94522e-25 -3.01955e-28 1.02737e-24 -1.02254e-24 2.46702e-28 1.58046e-23 -4.20357e-26 -2.89053e-24 5.36342e-24
          -1.64955e-26 2.82018e-24 2.40438e-24 -4.60996e-24 -5.03865e-29 -2.46304e-24 -3.30645e-24 -6.01137e-24 -2.29653e-28 8.50046e-25 7.66041e-25 1.17867e-27
          -3.56974e-26 -7.3087e-24 1.97525e-24 0 0 3.32983e-25 3.75573e-24 -4.84999e-25 4.58309e-24 0 1.80114e-24 0
          -3.36825e-25 4.16664e-25 9.06401e-28 9.28228e-26 -7.45555e-24 -3.56139e-28 -1.1414e-28 -3.35483e-28 4.04152e-24 -4.07683e-28 -1.19524e-24 -2.11969e-24
          4.6537e-28 8.61528e-25 -1.03514e-28 -1.64858e-25 1.87603e-24 -1.00521e-23 0 -1.03866e-23 0 1.34107e-28 2.978e-24 -3.69089e-24
          -1.68986e-24 3.3667e-28 1.31528e-24 0 3.349e-24 0 5.0196e-25 1.75578e-24 4.84083e-24 1.1316e-25 -6.23443e-24 -5.42e-24
          -2.10252e-24 1.75329e-25 5.07519e-26 -1.43108e-28 -1.72363e-24 -1.03622e-24 3.99948e-24 -1.99035e-24 2.18935e-24 -1.80639e-24 7.82031e-25 8.53194e-24
          -7.31101e-26 -4.32605e-24 9.98903e-24 5.31383e-24 -3.1955e-24 6.98961e-26 8.935e-25 -5.21731e-28 1.01647e-24 -7.69156e-29 -3.61365e-24 7.82367e-25
          -1.65776e-24 2.82537e-25 -2.63773e-24 -1.1924e-25 -5.5834e-24 -5.05146e-24 9.18119e-24 2.60999e-25 3.42407e-24 1.0497e-24 -3.43968e-25 -8.44784e-25
          -9.62436e-25 5.79626e-25 0 -3.65651e-26 -1.22804e-24 4.29025e-24 -7.54373e-24 7.54307e-24 -5.51225e-24 1.06862e-27 0 0
          2.36808e-25 -7.06417e-28 1.34115e-24 -1.09641e-24 -1.15102e-24 1.06291e-24 -1.78497e-24 -9.00208e-25 -1.28156e-24 2.32839e-26 5.08395e-25 -3.59493e-24
          1.29852e-23 -2.49035e-25 -6.24425e-24 4.45849e-25 9.08253e-25 -1.82788e-28 -7.68038e-25 8.7667e-29 -8.47096e-31 1.09642e-25 -2.79388e-24 4.90862e-25
          -1.2356e-25 9.81183e-24 -4.08052e-24 0 -2.63981e-25 -8.27794e-25 6.35223e-24 -7.33206e-25 0 -4.33613e-25 -1.65857e-29 -3.53e-25
          5.99812e-25 -1.2465e-24 -2.0673e-24 -3.37085e-25 -2.6568e-24 1.02358e-24 -2.83371e-23 0 2.83513e-23 -2.08106e-23 1.72073e-23 4.31726e-25
        </DataArray>
        <DataArray type="Float32" Name="velocity[2]" NumberOfComponents="1" format="ascii">
          -1.02146e-10 4.11473e-09 -2.90952e-09 -2.86973e-09 -2.91949e-09 -2.96517e-09 -2.61496e-09 -2.40528e-09 -2.39537e-09 -3.03854e-09 -3.20819e-09 -3.02071e-09
          -2.53285e-09 -2.04972e-09 -1.3978e-09 -1.35751e-09 1.70377e-08 -2.34301e-09 -3.06012e-09 -1.7257e-09 -1.56186e-09 -5.79373e-10 -1.50335e-09 -1.68887e-09
          -3.1081e-09 -3.43079e-09 -4.34289e-09 -2.92372e-09 -1.63235e-09 -1.88401e-09 -8.38112e-09 3.84821e-08 -6.3514e-10 8.3876e-10 -3.59924e-09 -2.49472e-09
          -2.60459e-10 -1.11195e-09 -2.65573e-09 -4.18122e-09 -3.99372e-09 -7.47202e-09 -3.49591e-09 -2.16742e-09 -2.5446e-09 -1.35856e-08 3.3654e-08 2.67611e-10
          1.27992e-08 -5.67526e-09 -5.39272e-09 -2.88801e-09 -1.68017e-09 -3.68449e-09 -5.00623e-09 -3.60146e-09 -1.0631e-08 -2.66067e-09 -2.50963e-09 -3.35011e-09
          -1.02429e-08 -1.53407e-09 -9.3416e-10 -2.50872e-08 -1.20776e-08 -1.49115e-08 -1.14281e-08 -6.42009e-09 -4.68167e-09 -6.06165e-09 -5.28549e-09 -1.71814e-08
          -1.19213e-09 -1.68068e-09 -3.69366e-09 -3.02594e-08 -3.82851e-08 -2.3725e-09 -4.80565e-08 -1.65112e-08 -3.35938e-08 -1.26123e-08 -1.39745e-08 -3.59875e-09
          -3.7216e-09 -4.90547e-09 -2.37046e-08 -9.50642e-10 -1.37656e-09 -3.99713e-09 -3.17478e-08 -3.47818e-08 -1.69748e-09 -1.8191e-08 -1.21587e-08 -4.69805e-08
          -1.35599e-08 -3.006e-08 -3.50774e-09 -2.79708e-09 -5.26333e-09 -2.86379e-08 -8.18603e-10 -1.16881e-09 -4.15249e-09 -2.91543e-08 -3.24006e-08 -1.92883e-09
          -5.95376e-09 -8.41294e-09 -4.2555e-08 -9.42033e-09 -4.58404e-08 -2.90207e-09 -2.1083e-09 -4.94658e-09 -3.17282e-08 -1.04167e-09 -1.55413e-09 -4.67596e-09
          -2.64799e-08 -2.95399e-08 -2.0954e-09 -3.01857e-09 -8.27277e-09 -4.1656e-08 -4.53399e-09 -5.7301e-08 -1.83425e-09 -1.35104e-09 -5.82876e-09 -2.9628e-08
          -9.75103e-10 -1.4118e-09 -5.09801e-09 -2.23204e-08 -2.84369e-08 -4.29646e-09 -2.18253e-09 -7.22201e-09 -4.14408e-08 -2.98685e-09 -6.91971e-08 -1.36872e-09
          -9.73144e-10 -9.3126e-09 -2.46164e-08 -1.16057e-09 -1.31991e-09 -5.53667e-09 -1.60668e-08 -2.53294e-08 -5.27833e-09 -1.91087e-09 -6.59855e-09 -4.07941e-08
          -1.67983e-09 -7.81064e-08 -2.14231e-09 -8.9163e-10 -1.20297e-08 -1.9872e-08 -1.94021e-09 -1.34258e-09 -5.86329e-09 -1.2258e-08 -2.30583e-08 -5.8058e-09
          -1.55124e-09 -5.83949e-09 -4.2689e-08 -1.18451e-09 -8.39222e-08 -3.0791e-09 -8.16167e-10 -1.18461e-08 -1.37716e-08 -3.96889e-09 -2.36655e-09 -6.30709e-09
          -1.00252e-08 -2.09599e-08 -4.79715e-09 -1.31294e-09 -4.1485e-09 -4.19195e-08 -2.46287e-09 -9.08417e-08 -8.38829e-09 -8.6852e-10 -9.18654e-09 -7.63147e-09
          -7.2013e-09 -3.26605e-09 -6.10059e-09 -8.74468e-09 -2.06329e-08 -4.60517e-09 -2.32939e-09 -4.36502e-09 -3.8053e-08 -1.15499e-09 -8.9082e-08 -1.57438e-08
          -2.6435e-09 -4.97115e-09 -2.59656e-09 -7.90547e-09 -5.17111e-09 -5.35746e-09 -8.18082e-09 -1.63148e-08 -3.82846e-09 -2.90947e-09 -6.33255e-09 -3.86356e-08
          -7.69335e-10 -8.22589e-08 -1.9446e-08 -5.22365e-09 -3.6656e-09 -1.73581e-09 -6.82849e-09 -7.34728e-09 -4.4633e-09 -1.00096e-08 -1.17787e-08 -2.93855e-09
          -1.70156e-09 -7.06597e-09 -3.91796e-08 -1.02381e-09 -7.15024e-08 -2.22457e-08 -8.64315e-09 -4.58704e-09 -4.13856e-09 -9.3456e-09 -1.15792e-08 -3.467e-09
          -1.08489e-08 -8.71888e-09 -2.23537e-09 -1.90715e-09 -9.21085e-09 -3.47198e-08 -2.38905e-09 -5.78778e-08 -2.29175e-08 -1.20994e-08 -3.25078e-09 -3.63124e-09
          -8.86039e-09 -1.78933e-08 -2.58543e-09 -1.09751e-08 -7.19693e-09 -1.30777e-09 -1.78506e-09 -1.38428e-08 -2.5789e-08 -3.45254e-09 -4.58908e-08 -2.50645e-08
          -1.67381e-08 -2.94652e-09 -3.14424e-09 -5.97942e-09 -2.23667e-08 -2.06936e-09 -1.01981e-08 -5.84444e-09 -1.49629e-09 -1.42066e-09 -1.73473e-08 -1.72356e-08
          -3.53916e-09 -3.36696e-08 -2.56961e-08 -2.56856e-08 -3.0386e-09 -3.33608e-09 -6.99808e-09 -2.5822e-08 -2.28659e-09 -8.55266e-09 -4.05897e-09 -1.20411e-09
          -1.1498e-09 -1.85163e-08 -1.06346e-08 -3.32746e-09 -2.52675e-08 -1.90967e-08 -4.27344e-08 -3.07619e-09 -3.11945e-09 -8.57877e-09 -2.7385e-08 -2.86964e-09
          -6.71946e-09 -3.23868e-09 -1.39115e-09 -1.11888e-09 -1.776e-08 -6.88325e-09 -3.23473e-09 -2.03175e-08 -9.49886e-09 -5.586e-08 -3.38323e-09 -3.87433e-09
          -1.05273e-08 -2.89469e-08 -3.19804e-09 -4.44094e-09 -2.20018e-09 -1.54639e-09 -1.27409e-09 -1.39866e-08 -6.04519e-09 -3.59207e-09 -1.93855e-08 -6.01662e-09
          -5.86052e-08 -4.30482e-09 -5.88661e-09 -1.17965e-08 -3.09935e-08 -4.5313e-09 -2.18465e-09 -1.18524e-09 -1.09259e-09 -1.17472e-09 -8.07027e-09 -5.52888e-09
          -3.86953e-09 -2.07473e-08 -5.81873e-09 -5.24535e-08 -7.13576e-09 -1.01745e-08 -1.634e-08 -3.28373e-08 -5.71933e-09 -6.77875e-10 -5.0393e-10 -3.74688e-10
          -3.76213e-10 -2.22807e-09 -2.37598e-09 -1.93676e-09 -1.19978e-08 -6.01631e-09 -3.05e-08 -1.30663e-08 -1.14487e-08 -1.30666e-08 -1.82558e-08 -3.06901e-09
        </DataArray>
        <DataArray type="Float32" Name="z[0]" NumberOfComponents="1" format="ascii">
          0.150578 0.150579 0.15058 0.150582 0.150582 0.150583 0.150584 0.150585 0.150585 0.150586 0.150587 0.150588
          0.150589 0.150591 0.150596 0.150581 0.150582 0.150583 0.150585 0.150586 0.150587 0.150587 0.150588 0.150588
          0.150589 0.15059 0.150591 0.150593 0.150595 0.150599 0.150584 0.150585 0.150587 0.150588 0.150589 0.15059
          0.15059 0.150591 0.150592 0.150593 0.150593 0.150595 0.150596 0.150598 0.150602 0.150588 0.150589 0.15059
          0.150591 0.150592 0.150593 0.150594 0.150594 0.150595 0.150596 0.150597 0.150598 0.150599 0.150601 0.150605
          0.150591 0.150592 0.150593 0.150594 0.150595 0.150596 0.150597 0.153586 0.150598 0.150599 0.1506 0.150601
          0.150602 0.150604 0.150609 0.150594 0.150595 0.150596 0.150597 0.150598 0.150604 0.164393 0.381857 0.150601