<?xml version="1.0"?>
<VTKFile type="UnstructuredGrid" version="0.1" byte_order="LittleEndian">
  <UnstructuredGrid>
    <Piece NumberOfCells="360" NumberOfPoints="800">
      <CellData Scalars="pressure[0]">
        <DataArray type="Float32" Name="pressure[0]" NumberOfComponents="1" format="ascii">
          2.0846e+07 2.08605e+07 2.13545e+07 2.18806e+07 2.2273e+07 2.27402e+07 2.28906e+07 2.29444e+07 2.30094e+07 2.30805e+07 2.33026e+07 2.36733e+07
          2.39488e+07 2.46174e+07 2.53923e+07 2.08897e+07 2.09042e+07 2.14476e+07 2.19923e+07 2.24273e+07 2.29221e+07 2.30337e+07 2.30752e+07 2.31431e+07
          2.32254e+07 2.35451e+07 2.39228e+07 2.41398e+07 2.48182e+07 2.556e+07 2.09335e+07 2.0948e+07 2.15145e+07 2.21284e+07 2.25144e+07 2.29798e+07
          2.31169e+07 2.31801e+07 2.3273e+07 2.33917e+07 2.38342e+07 2.4273e+07 2.44706e+07 2.50789e+07 2.57743e+07 2.09778e+07 2.09927e+07 2.13889e+07
          2.22583e+07 2.26345e+07 2.30839e+07 2.32105e+07 2.32683e+07 2.34245e+07 2.36272e+07 2.42234e+07 2.4697e+07 2.48734e+07 2.53844e+07 2.60419e+07
          2.10669e+07 2.10927e+07 1.97718e+07 2.23475e+07 2.27985e+07 2.32983e+07 2.33998e+07 2.34681e+07 2.37379e+07 2.41547e+07 2.46865e+07 2.50974e+07
          2.52689e+07 2.57267e+07 2.63039e+07 2.12594e+07 2.13025e+07 2.17742e+07 2.27302e+07 2.33885e+07 2.39626e+07 2.40293e+07 2.40892e+07 2.43311e+07
          2.47468e+07 2.52059e+07 2.54487e+07 2.56333e+07 2.60718e+07 2.65973e+07 2.15029e+07 2.15523e+07 2.23678e+07 2.33302e+07 2.40464e+07 2.45934e+07
          2.46741e+07 2.47597e+07 2.48981e+07 2.53087e+07 2.56565e+07 2.57519e+07 2.5929e+07 2.64426e+07 2.70056e+07 2.18483e+07 2.19017e+07 2.29318e+07
          2.38328e+07 2.46766e+07 2.51654e+07 2.52238e+07 2.52805e+07 2.54145e+07 2.57275e+07 2.59476e+07 2.60174e+07 2.62575e+07 2.68214e+07 2.75692e+07
          2.23467e+07 2.24088e+07 2.34104e+07 2.42809e+07 2.53385e+07 2.56691e+07 2.57774e+07 2.58836e+07 2.59748e+07 2.61447e+07 2.62422e+07 2.62694e+07
          2.65184e+07 2.72449e+07 2.81303e+07 2.29512e+07 2.30523e+07 2.37038e+07 2.43467e+07 2.58804e+07 2.61082e+07 2.63474e+07 2.65647e+07 2.65699e+07
          2.6572e+07 2.65937e+07 2.66216e+07 2.68856e+07 2.76672e+07 2.8463e+07 2.38387e+07 2.3981e+07 2.43158e+07 2.47685e+07 2.62588e+07 2.64275e+07
          2.6809e+07 2.71327e+07 2.70304e+07 2.69743e+07 2.69467e+07 2.69855e+07 2.72115e+07 2.80142e+07 2.87138e+07 2.44912e+07 2.45933e+07 2.48699e+07
          2.52553e+07 2.66284e+07 2.67388e+07 2.72771e+07 2.77104e+07 2.77517e+07 2.7353e+07 2.73051e+07 2.73517e+07 2.76025e+07 2.83847e+07 2.94879e+07
          2.55255e+07 2.55846e+07 2.56074e+07 2.5952e+07 2.71594e+07 2.72701e+07 2.7847e+07 2.83482e+07 2.84479e+07 2.84033e+07 2.83298e+07 2.85426e+07
          2.90681e+07 2.99894e+07 3.0201e+07 2.65146e+07 2.6551e+07 2.63763e+07 2.67485e+07 2.80215e+07 2.81326e+07 2.86091e+07 2.89828e+07 2.90533e+07
          2.91303e+07 2.91883e+07 2.96679e+07 3.03346e+07 3.08696e+07 3.0633e+07 2.72833e+07 2.72835e+07 2.73171e+07 2.83796e+07 2.88784e+07 2.89417e+07
          2.9256e+07 2.94818e+07 2.95333e+07 2.96139e+07 2.97704e+07 3.05382e+07 3.11347e+07 3.13096e+07 3.11482e+07 2.79687e+07 2.79903e+07 2.80836e+07
          2.91426e+07 2.93822e+07 2.94369e+07 2.96583e+07 2.98033e+07 2.98528e+07 2.99274e+07 3.02234e+07 3.09565e+07 3.15015e+07 3.1811e+07 3.1634e+07
          2.86769e+07 2.87264e+07 2.9103e+07 2.9669e+07 2.97899e+07 2.98274e+07 2.99406e+07 3.00403e+07 3.00884e+07 3.01519e+07 3.05455e+07 3.14189e+07
          3.20069e+07 3.23091e+07 3.20782e+07 2.92478e+07 2.93074e+07 2.96737e+07 2.995e+07 3.00716e+07 3.01155e+07 3.02038e+07 3.02783e+07 3.03284e+07
          3.03863e+07 3.08706e+07 3.17943e+07 3.23954e+07 3.26418e+07 3.25204e+07 2.95593e+07 2.96255e+07 2.98423e+07 3.01556e+07 3.03179e+07 3.03653e+07
          3.04432e+07 3.05092e+07 3.05552e+07 3.06109e+07 3.11438e+07 3.21651e+07 3.27809e+07 3.2965e+07 3.31307e+07 2.98091e+07 2.98676e+07 3.00625e+07
          3.03747e+07 3.05347e+07 3.05827e+07 3.06586e+07 3.07214e+07 3.07677e+07 3.08298e+07 3.1358e+07 3.24842e+07 3.31609e+07 3.33053e+07 3.37109e+07
          3.00192e+07 3.00855e+07 3.02409e+07 3.053e+07 3.07286e+07 3.07816e+07 3.08636e+07 3.09305e+07 3.09927e+07 3.10714e+07 3.18188e+07 3.30239e+07
          3.35139e+07 3.36667e+07 3.41633e+07 3.02206e+07 3.02894e+07 3.0428e+07 3.07107e+07 3.09133e+07 3.09716e+07 3.10672e+07 3.11442e+07 3.12253e+07
          3.13161e+07 3.23254e+07 3.35781e+07 3.38799e+07 3.40661e+07 3.46039e+07 3.04044e+07 3.04673e+07 3.06342e+07 3.09321e+07 3.10979e+07 3.11652e+07
          3.12781e+07 3.13678e+07 3.1473e+07 3.15865e+07 3.2756e+07 3.40368e+07 3.42955e+07 3.45042e+07 3.49208e+07 3.05725e+07 3.06324e+07 3.0779e+07
          3.1078e+07 3.12904e+07 3.13594e+07 3.14868e+07 3.15915e+07 3.17203e+07 3.18736e+07 3.32309e+07 3.44361e+07 3.47235e+07 3.49125e+07 3.52013e+07
        </DataArray>
        <DataArray type="Float32" Name="pressure[1]" NumberOfComponents="1" format="ascii">
          2.0846e+07 2.08605e+07 2.13545e+07 2.18806e+07 2.2273e+07 2.27402e+07 2.28906e+07 2.29444e+07 2.30094e+07 2.30805e+07 2.33026e+07 2.36733e+07
          2.39488e+07 2.46174e+07 2.53923e+07 2.08897e+07 2.09042e+07 2.14476e+07 2.19923e+07 2.24273e+07 2.29221e+07 2.30337e+07 2.30752e+07 2.31431e+07
          2.32254e+07 2.35451e+07 2.39228e+07 2.41398e+07 2.48182e+07 2.556e+07 2.09335e+07 2.0948e+07 2.15145e+07 2.21284e+07 2.25144e+07 2.29798e+07
          2.31169e+07 2.31801e+07 2.3273e+07 2.33917e+07 2.38342e+07 2.4273e+07 2.44706e+07 2.50789e+07 2.57743e+07 2.09778e+07 2.09927e+07 2.13889e+07
          2.22583e+07 2.26345e+07 2.30839e+07 2.32105e+07 2.32683e+07 2.34245e+07 2.36272e+07 2.42234e+07 2.4697e+07 2.48734e+07 2.53844e+07 2.60419e+07
          2.10669e+07 2.10927e+07 1.97718e+07 2.23475e+07 2.27985e+07 2.32983e+07 2.33998e+07 2.34681e+07 2.37379e+07 2.41547e+07 2.46865e+07 2.50974e+07
          2.52689e+07 2.57267e+07 2.63039e+07 2.12594e+07 2.13025e+07 2.17742e+07 2.27302e+07 2.33885e+07 2.39626e+07 2.40293e+07 2.40892e+07 2.43311e+07
          2.47468e+07 2.52059e+07 2.54487e+07 2.56333e+07 2.60718e+07 2.65973e+07 2.15029e+07 2.15523e+07 2.23678e+07 2.33302e+07 2.40464e+07 2.45934e+07
          2.46741e+07 2.47597e+07 2.48981e+07 2.53087e+07 2.56565e+07 2.57519e+07 2.5929e+07 2.64426e+07 2.70056e+07 2.18483e+07 2.19017e+07 2.29318e+07
          2.38328e+07 2.46766e+07 2.51654e+07 2.52238e+07 2.52805e+07 2.54145e+07 2.57275e+07 2.59476e+07 2.60174e+07 2.62575e+07 2.68214e+07 2.75692e+07
          2.23467e+07 2.24088e+07 2.34104e+07 2.42809e+07 2.53385e+07 2.56691e+07 2.57774e+07 2.58836e+07 2.59748e+07 2.61447e+07 2.62422e+07 2.62694e+07
          2.65184e+07 2.72449e+07 2.81303e+07 2.29512e+07 2.30523e+07 2.37038e+07 2.43467e+07 2.58804e+07 2.61082e+07 2.63474e+07 2.65647e+07 2.65699e+07
          2.6572e+07 2.65937e+07 2.66216e+07 2.68856e+07 2.76672e+07 2.8463e+07 2.38387e+07 2.3981e+07 2.43158e+07 2.47685e+07 2.62588e+07 2.64275e+07
          2.6809e+07 2.71327e+07 2.70304e+07 2.69743e+07 2.69467e+07 2.69855e+07 2.72115e+07 2.80142e+07 2.87138e+07 2.44912e+07 2.45933e+07 2.48699e+07
          2.52553e+07 2.66284e+07 2.67388e+07 2.72771e+07 2.77104e+07 2.77517e+07 2.7353e+07 2.73051e+07 2.73517e+07 2.76025e+07 2.83847e+07 2.94879e+07
          2.55255e+07 2.55846e+07 2.56074e+07 2.5952e+07 2.71594e+07 2.72701e+07 2.7847e+07 2.83482e+07 2.84479e+07 2.84033e+07 2.83298e+07 2.85426e+07
          2.90681e+07 2.99894e+07 3.0201e+07 2.65146e+07 2.6551e+07 2.63763e+07 2.67485e+07 2.80215e+07 2.81326e+07 2.86091e+07 2.89828e+07 2.90533e+07
          2.91303e+07 2.91883e+07 2.96679e+07 3.03346e+07 3.08696e+07 3.0633e+07 2.72833e+07 2.72835e+07 2.73171e+07 2.83796e+07 2.88784e+07 2.89417e+07
          2.9256e+07 2.94818e+07 2.95333e+07 2.96139e+07 2.97704e+07 3.05382e+07 3.11347e+07 3.13096e+07 3.11482e+07 2.79687e+07 2.79903e+07 2.80836e+07
          2.91426e+07 2.93822e+07 2.94369e+07 2.96583e+07 2.98033e+07 2.98528e+07 2.99274e+07 3.02234e+07 3.09565e+07 3.15015e+07 3.1811e+07 3.1634e+07
          2.86769e+07 2.87264e+07 2.9103e+07 2.9669e+07 2.97899e+07 2.98274e+07 2.99406e+07 3.00403e+07 3.00884e+07 3.01519e+07 3.05455e+07 3.14189e+07
          3.20069e+07 3.23091e+07 3.20782e+07 2.92478e+07 2.93074e+07 2.96737e+07 2.995e+07 3.00716e+07 3.01155e+07 3.02038e+07 3.02783e+07 3.03284e+07
          3.03863e+07 3.08706e+07 3.17943e+07 3.23954e+07 3.26418e+07 3.25204e+07 2.95593e+07 2.96255e+07 2.98423e+07 3.01556e+07 3.03179e+07 3.03653e+07
          3.04432e+07 3.05092e+07 3.05552e+07 3.06109e+07 3.11438e+07 3.21651e+07 3.27809e+07 3.2965e+07 3.31307e+07 2.98091e+07 2.98676e+07 3.00625e+07
          3.03747e+07 3.05347e+07 3.05827e+07 3.06586e+07 3.07214e+07 3.07677e+07 3.08298e+07 3.1358e+07 3.24842e+07 3.31609e+07 3.33053e+07 3.37109e+07
          3.00192e+07 3.00855e+07 3.02409e+07 3.053e+07 3.07286e+07 3.07816e+07 3.08636e+07 3.09305e+07 3.09927e+07 3.10714e+07 3.18188e+07 3.30239e+07
          3.35139e+07 3.36667e+07 3.41633e+07 3.02206e+07 3.02894e+07 3.0428e+07 3.07107e+07 3.09133e+07 3.09716e+07 3.10672e+07 3.11442e+07 3.12253e+07
          3.13161e+07 3.23254e+07 3.35781e+07 3.38799e+07 3.40661e+07 3.46039e+07 3.04044e+07 3.04673e+07 3.06342e+07 3.09321e+07 3.10979e+07 3.11652e+07
          3.12781e+07 3.13678e+07 3.1473e+07 3.15865e+07 3.2756e+07 3.40368e+07 3.42955e+07 3.45042e+07 3.49208e+07 3.05725e+07 3.06324e+07 3.0779e+07
          3.1078e+07 3.12904e+07 3.13594e+07 3.14868e+07 3.15915e+07 3.17203e+07 3.18736e+07 3.32309e+07 3.44361e+07 3.47235e+07 3.49125e+07 3.52013e+07
        </DataArray>
        <DataArray type="Float32" Name="pressure[2]" NumberOfComponents="1" format="ascii">
          2.0846e+07 2.08605e+07 2.13545e+07 2.18806e+07 2.2273e+07 2.27402e+07 2.28906e+07 2.29444e+07 2.30094e+07 2.30805e+07 2.33026e+07 2.36733e+07
          2.39488e+07 2.46174e+07 2.53923e+07 2.08897e+07 2.09042e+07 2.14476e+07 2.19923e+07 2.24273e+07 2.29221e+07 2.30337e+07 2.30752e+07 2.31431e+07
          2.32254e+07 2.35451e+07 2.39228e+07 2.41398e+07 2.48182e+07 2.556e+07 2.09335e+07 2.0948e+07 2.15145e+07 2.21284e+07 2.25144e+07 2.29798e+07
          2.31169e+07 2.31801e+07 2.3273e+07 2.33917e+07 2.38342e+07 2.4273e+07 2.44706e+07 2.50789e+07 2.57743e+07 2.09778e+07 2.09927e+07 2.13889e+07
          2.22583e+07 2.26345e+07 2.30839e+07 2.32105e+07 2.32683e+07 2.34245e+07 2.36272e+07 2.42234e+07 2.4697e+07 2.48734e+07 2.53844e+07 2.60419e+07
          2.10669e+07 2.10927e+07 1.97718e+07 2.23475e+07 2.27985e+07 2.32983e+07 2.33998e+07 2.34681e+07 2.37379e+07 2.41547e+07 2.46865e+07 2.50974e+07
          2.52689e+07 2.57267e+07 2.63039e+07 2.12594e+07 2.13025e+07 2.17742e+07 2.27302e+07 2.33885e+07 2.39626e+07 2.40293e+07 2.40892e+07 2.43311e+07
          2.47468e+07 2.52059e+07 2.54487e+07 2.56333e+07 2.60718e+07 2.65973e+07 2.15029e+07 2.15523e+07 2.23678e+07 2.33302e+07 2.40464e+07 2.45934e+07
          2.46741e+07 2.47597e+07 2.48981e+07 2.53087e+07 2.56565e+07 2.57519e+07 2.5929e+07 2.64426e+07 2.70056e+07 2.18483e+07 2.19017e+07 2.29318e+07
          2.38328e+07 2.46766e+07 2.51654e+07 2.52238e+07 2.52805e+07 2.54145e+07 2.57275e+07 2.59476e+07 2.60174e+07 2.62575e+07 2.68214e+07 2.75692e+07
          2.23467e+07 2.24088e+07 2.34104e+07 2.42809e+07 2.53385e+07 2.56691e+07 2.57774e+07 2.58836e+07 2.59748e+07 2.61447e+07 2.62422e+07 2.62694e+07
          2.65184e+07 2.72449e+07 2.81303e+07 2.29512e+07 2.30523e+07 2.37038e+07 2.43467e+07 2.58804e+07 2.61082e+07 2.63474e+07 2.65647e+07 2.65699e+07
          2.6572e+07 2.65937e+07 2.66216e+07 2.68856e+07 2.76672e+07 2.8463e+07 2.38387e+07 2.3981e+07 2.43158e+07 2.47685e+07 2.62588e+07 2.64275e+07
          2.6809e+07 2.71327e+07 2.70304e+07 2.69743e+07 2.69467e+07 2.69855e+07 2.72115e+07 2.80142e+07 2.87138e+07 2.44912e+07 2.45933e+07 2.48699e+07
          2.52553e+07 2.66284e+07 2.67388e+07 2.72771e+07 2.77104e+07 2.77517e+07 2.7353e+07 2.73051e+07 2.73517e+07 2.76025e+07 2.83847e+07 2.94879e+07
          2.55255e+07 2.55846e+07 2.56074e+07 2.5952e+07 2.71594e+07 2.72701e+07 2.7847e+07 2.83482e+07 2.84479e+07 2.84033e+07 2.83298e+07 2.85426e+07
          2.90681e+07 2.99894e+07 3.0201e+07 2.65146e+07 2.6551e+07 2.63763e+07 2.67485e+07 2.80215e+07 2.81326e+07 2.86091e+07 2.89828e+07 2.90533e+07
          2.91303e+07 2.91883e+07 2.96679e+07 3.03346e+07 3.08696e+07 3.0633e+07 2.72833e+07 2.72835e+07 2.73171e+07 2.83796e+07 2.88784e+07 2.89417e+07
          2.9256e+07 2.94818e+07 2.95333e+07 2.96139e+07 2.97704e+07 3.05382e+07 3.11347e+07 3.13096e+07 3.11482e+07 2.79687e+07 2.79903e+07 2.80836e+07
          2.91426e+07 2.93822e+07 2.94369e+07 2.96583e+07 2.98033e+07 2.98528e+07 2.99274e+07 3.02234e+07 3.09565e+07 3.15015e+07 3.1811e+07 3.1634e+07
          2.86769e+07 2.87264e+07 2.9103e+07 2.9669e+07 2.97899e+07 2.98274e+07 2.99406e+07 3.00403e+07 3.00884e+07 3.01519e+07 3.05455e+07 3.14189e+07
          3.20069e+07 3.23091e+07 3.20782e+07 2.92478e+07 2.93074e+07 2.96737e+07 2.995e+07 3.00716e+07 3.01155e+07 3.02038e+07 3.02783e+07 3.03284e+07
          3.03863e+07 3.08706e+07 3.17943e+07 3.23954e+07 3.26418e+07 3.25204e+07 2.95593e+07 2.96255e+07 2.98423e+07 3.01556e+07 3.03179e+07 3.03653e+07
          3.04432e+07 3.05092e+07 3.05552e+07 3.06109e+07 3.11438e+07 3.21651e+07 3.27809e+07 3.2965e+07 3.31307e+07 2.98091e+07 2.98676e+07 3.00625e+07
          3.03747e+07 3.05347e+07 3.05827e+07 3.06586e+07 3.07214e+07 3.07677e+07 3.08298e+07 3.1358e+07 3.24842e+07 3.31609e+07 3.33053e+07 3.37109e+07
          3.00192e+07 3.00855e+07 3.02409e+07 3.053e+07 3.07286e+07 3.07816e+07 3.08636e+07 3.09305e+07 3.09927e+07 3.10714e+07 3.18188e+07 3.30239e+07
          3.35139e+07 3.36667e+07 3.41633e+07 3.02206e+07 3.02894e+07 3.0428e+07 3.07107e+07 3.09133e+07 3.09716e+07 3.10672e+07 3.11442e+07 3.12253e+07
          3.13161e+07 3.23254e+07 3.35781e+07 3.38799e+07 3.40661e+07 3.46039e+07 3.04044e+07 3.04673e+07 3.06342e+07 3.09321e+07 3.10979e+07 3.11652e+07
          3.12781e+07 3.13678e+07 3.1473e+07 3.15865e+07 3.2756e+07 3.40368e+07 3.42955e+07 3.45042e+07 3.49208e+07 3.05725e+07 3.06324e+07 3.0779e+07
          3.1078e+07 3.12904e+07 3.13594e+07 3.14868e+07 3.15915e+07 3.17203e+07 3.18736e+07 3.32309e+07 3.44361e+07 3.47235e+07 3.49125e+07 3.52013e+07
        </DataArray>
        <DataArray type="Float32" Name="velocity[0]" NumberOfComponents="1" format="ascii">
          -8.34457e-12 2.91963e-08 3.14365e-10 3.73949e-09 -1.45788e-10 -1.37266e-09 -3.75337e-10 1.33401e-09 1.82415e-09 -6.98776e-10 -2.13958e-09 -3.13094e-09
          -2.20551e-09 -6.56703e-10 -2.78907e-09 -1.30222e-09 8.41723e-08 6.51051e-10 4.17761e-09 3.19446e-10 2.02054e-09 8.49901e-09 5.9915e-09 3.78486e-09
          -3.25154e-09 -4.44385e-09 -1.30442e-08 -8.09737e-09 -2.04371e-09 -7.38538e-09 -9.55459e-09 1.27342e-07 1.19942e-09 3.48661e-08 7.9078e-10 5.60911e-09
          1.51884e-08 1.16216e-08 1.14416e-09 -7.7964e-09 -5.46851e-09 -3.23829e-08 -1.128e-08 -4.22721e-09 -1.10096e-08 -2.39931e-08 1.60112e-07 6.09245e-09
          1.21961e-07 -4.0348e-10 -5.78995e-09 -1.62747e-09 1.94323e-09 -6.51333e-09 -1.63749e-08 -7.39762e-09 -5.69491e-08 -7.95533e-09 -5.98371e-09 -1.48981e-08
          -9.10405e-08 -1.89631e-08 -5.16835e-11 -2.2423e-08 -5.51457e-09 -4.57391e-08 -5.46583e-08 -5.23938e-08 -1.33479e-08 -1.72768e-08 -1.0341e-08 -9.58631e-08
          -4.01946e-09 -5.42664e-09 -1.8226e-08 -1.58984e-07 -1.94129e-07 -6.44235e-09 -1.69055e-07 -1.23695e-08 -1.14605e-07 -8.03786e-08 -1.144e-07 -1.36672e-08
          -8.67265e-09 -1.46116e-08 -1.35712e-07 -2.3648e-09 -4.29875e-09 -2.03988e-08 -1.60582e-07 -1.69957e-07 -2.44069e-09 -7.69373e-08 -1.36401e-08 -1.79788e-07
          -5.91282e-08 -1.77923e-07 -1.01639e-08 -3.81993e-09 -1.71165e-08 -1.57513e-07 -1.95209e-09 -4.14863e-09 -2.1869e-08 -1.46517e-07 -1.57348e-07 -2.72267e-09
          -2.30943e-08 -1.123e-08 -2.17118e-07 -3.48974e-08 -2.58103e-07 -7.15795e-09 -2.57832e-09 -1.83091e-08 -1.67265e-07 -1.5507e-09 -4.16788e-09 -2.35389e-08
          -1.31586e-07 -1.42484e-07 -2.39268e-09 -4.72039e-09 -9.23702e-09 -2.3467e-07 -1.2717e-08 -3.26058e-07 -5.34105e-09 -2.71874e-09 -2.91226e-08 -1.54665e-07
          -1.42445e-09 -3.68036e-09 -2.57734e-08 -1.0506e-07 -1.30293e-07 -8.39944e-09 -7.32279e-10 -6.71877e-09 -2.37125e-07 -4.21319e-09 -3.95525e-07 -4.45052e-09
          -3.11187e-09 -4.79479e-08 -1.2476e-07 -2.1333e-09 -3.02742e-09 -2.80282e-08 -7.38014e-08 -1.17483e-07 -1.99682e-08 -2.10899e-09 -5.86058e-09 -2.33509e-07
          -1.41813e-09 -4.60924e-07 -4.71361e-09 -4.07358e-09 -5.91611e-08 -9.34671e-08 -5.01544e-09 -3.40578e-09 -3.00502e-08 -4.8996e-08 -8.45826e-08 -4.13586e-08
          -2.14563e-09 -8.56961e-09 -2.34712e-07 -1.17814e-09 -5.03274e-07 -1.54733e-08 -6.03934e-09 -5.23117e-08 -5.62377e-08 -1.51595e-08 -7.41571e-09 -3.1533e-08
          -3.59206e-08 -6.74648e-08 -4.72598e-08 -4.1933e-09 -1.334e-08 -2.21363e-07 -1.69122e-09 -5.1531e-07 -4.65054e-08 -7.7521e-09 -3.41648e-08 -2.19724e-08
          -2.94698e-08 -1.46832e-08 -3.21119e-08 -3.65436e-08 -7.83841e-08 -2.88228e-08 -5.25057e-09 -1.96774e-08 -2.05208e-07 -1.73299e-09 -4.86344e-07 -8.13078e-08
          -1.30448e-08 -1.94422e-08 -6.85598e-09 -3.33711e-08 -2.60862e-08 -3.06788e-08 -4.46893e-08 -7.31986e-08 -1.61209e-08 -3.74275e-09 -2.6412e-08 -2.03537e-07
          -1.22987e-09 -4.40255e-07 -9.83433e-08 -2.18939e-08 -1.30995e-08 -3.58829e-09 -3.06857e-08 -4.04516e-08 -2.72555e-08 -5.5411e-08 -5.81352e-08 -7.99607e-09
          -3.3776e-09 -3.24718e-08 -2.00775e-07 -1.52934e-09 -3.74111e-07 -1.02943e-07 -3.1149e-08 -8.09655e-09 -4.85263e-09 -3.4553e-08 -5.92659e-08 -2.28229e-08
          -5.9436e-08 -4.568e-08 -3.79011e-09 -4.40648e-09 -4.58997e-08 -1.75459e-07 -2.95061e-09 -2.96037e-07 -1.03758e-07 -4.86609e-08 -3.43264e-09 -4.79249e-09
          -2.81281e-08 -8.77489e-08 -1.80473e-08 -5.8244e-08 -3.60815e-08 -1.64015e-09 -3.00795e-09 -6.79089e-08 -1.26222e-07 -4.51194e-09 -2.25532e-07 -1.11694e-07
          -7.33589e-08 -2.44602e-09 -3.2432e-09 -1.82459e-08 -1.14542e-07 -1.40333e-08 -5.23707e-08 -2.57528e-08 -1.11428e-09 -1.21185e-09 -8.4442e-08 -8.03153e-08
          -4.75118e-09 -1.60474e-07 -1.11327e-07 -1.14821e-07 -1.42797e-09 -2.67261e-09 -2.38307e-08 -1.30809e-07 -1.22532e-08 -4.34002e-08 -1.73518e-08 -1.34171e-09
          -5.78833e-10 -9.04223e-08 -4.58591e-08 -3.97647e-09 -1.17368e-07 -7.18685e-08 -1.98374e-07 -2.48212e-09 -3.79306e-09 -3.54349e-08 -1.38627e-07 -1.31613e-08
          -3.31689e-08 -1.17011e-08 -1.24852e-09 -1.50597e-10 -8.44169e-08 -2.40894e-08 -3.41978e-09 -9.22856e-08 -3.00209e-08 -2.74785e-07 -3.88658e-09 -6.98228e-09
          -4.31291e-08 -1.4479e-07 -1.51001e-08 -2.08693e-08 -5.9726e-09 -1.98677e-09 -7.67789e-10 -6.25608e-08 -1.6434e-08 -3.34324e-09 -8.68783e-08 -1.6263e-08
          -2.90246e-07 -3.54767e-09 -1.34256e-08 -4.72006e-08 -1.51043e-07 -1.87206e-08 -9.74609e-09 -2.39041e-09 -8.97021e-10 -5.08622e-10 -3.12807e-08 -1.22805e-08
          -2.74166e-09 -9.14557e-08 -1.30901e-08 -2.49929e-07 -4.92285e-09 -2.31528e-08 -6.18064e-08 -1.57276e-07 -2.44225e-08 -2.58328e-09 -5.39104e-10 1.9699e-10
          7.25231e-11 -7.38541e-09 -4.68843e-09 -1.00312e-09 -4.65627e-08 -6.09394e-09 -1.08025e-07 -3.24724e-09 -1.40451e-08 -3.68804e-08 -8.08069e-08 -1.37085e-08
        </DataArray>
        <DataArray type="Float32" Name="velocity[1]" NumberOfComponents="1" format="ascii">
          1.29684e-27 4.65119e-24 6.37995e-26 5.81161e-25 2.26571e-26 0 5.83317e-26 -1.90071e-25 1.41056e-26 5.96989e-24 -3.82757e-24 2.15006e-26
          2.45579e-24 -9.6936e-25 4.33524e-25 1.99787e-25 3.91397e-24 5.71704e-26 -5.13073e-25 -1.46547e-25 7.81637e-24 1.38437e-24 4.48025e-25 -7.49419e-24
          -9.28151e-26 0 -2.1433e-26 2.60566e-26 1.81627e-29 2.80868e-25 1.08273e-24 -6.14445e-24 -1.38432e-24 5.28243e-24 -1.56881e-25 0
          3.72932e-25 -3.84927e-25 -4.31621e-25 0 7.29196e-24 -1.17415e-23 0 1.12936e-24 -2.82293e-25 2.35006e-24 1.04705e-23 -1.3091e-24
          -1.17204e-23 2.02052e-25 1.04475e-23 -2.39174e-23 2.79955e-23 -4.075e-24 1.17175e-24 3.81638e-24 -4.73491e-24 2.97665e-24 -1.28751e-24 9.65727e-25
          -9.14316e-26 -6.04413e-23 5.20042e-24 1.21331e-23 -4.68891e-25 -4.83263e-24 4.4841e-27 -9.18677e-26 -3.35692e-25 -6.8122e-24 4.46182e-24 -8.36773e-24
          3.14321e-28 1.33746e-25 -1.5139e-24 -1.18706e-25 5.99552e-24 -4.8387e-25 1.44842e-25 4.58585e-26 -6.11038e-24 0 -5.47585e-26 2.56697e-25
          5.78195e-25 -3.73483e-25 6.94583e-24 -1.30011e-24 7.71251e-25 1.51391e-24 -9.03088e-25 9.57785e-25 0 5.87072e-24 -3.11575e-25 -1.09527e-23
          3.55945e-26 -1.52855e-26 -2.07927e-24 2.46685e-28 9.11614e-28 5.31029e-28 1.96734e-26 6.66779e-29 -1.65632e-24 -1.74609e-25 1.15485e-23 1.23309e-24
          4.01942e-24 4.69453e-26 1.41718e-23 -3.33336e-26 6.73927e-26 3.53893e-25 1.3838e-27 -2.59313e-24 -1.2237e-23 2.92118e-29 -3.31642e-25 1.91585e-24
          -1.35979e-24 -8.30006e-24 3.3351e-26 -1.45789e-24 -1.73663e-25 2.62796e-24 0 0 1.92325e-25 -8.97942e-29 3.41306e-25 4.19454e-24
          5.16986e-29 6.06169e-26 2.03178e-29 -9.6316e-24 1.09074e-24 1.31971e-24 -2.51722e-25 -2.07434e-24 2.96318e-24 -5.5532e-24 5.88119e-24 -1.12921e-25
          -3.7989e-26 1.30666e-25 3.47054e-24 -7.80212e-25 0 -2.08965e-24 3.24752e-24 1.9082e-25 7.87751e-25 -1.76619e-25 1.93408e-24 -1.09631e-27
          -3.61382e-24 8.57836e-24 7.3289e-26 1.11196e-25 -4.52972e-25 6.93262e-24 1.73861e-24 -2.7556e-25 1.3778e-25 -2.84094e-24 7.65075e-24 -2.53021e-24
          -1.46653e-25 -1.37119e-24 -1.83165e-23 3.05024e-26 2.29919e-24 -3.53814e-24 -1.94154e-25 1.57852e-24 3.27719e-24 -1.77351e-24 1.02369e-24 -9.28657e-26
          2.74186e-24 4.62006e-24 0 -2.46195e-25 4.0587e-25 2.23438e-24 4.91659e-26 -4.21495e-25 -3.2243e-24 2.06977e-28 -1.94146e-24 -7.81255e-25
          1.04724e-24 -8.38012e-25 2.24553e-29 1.96235e-25 -1.18721e-27 8.3606e-25 1.63276e-25 1.30931e-28 1.51065e-23 -4.25327e-26 -4.07433e-24 5.84982e-24
          -9.35686e-25 1.94145e-24 2.02677e-24 -4.19034e-24 -8.06757e-29 -2.27416e-24 -2.93765e-24 -5.05945e-24 3.6099e-28 3.67058e-25 4.67452e-25 7.98171e-28
          -3.54488e-26 -7.5673e-24 1.99226e-24 0 0 2.84244e-25 3.50158e-24 -4.42115e-25 4.2358e-24 0 1.08511e-24 0
          -3.10311e-25 4.745e-25 5.70074e-28 8.19892e-26 -7.19346e-24 -8.46672e-29 -1.17487e-28 -2.36113e-28 3.71268e-24 -5.58371e-28 -1.10524e-24 -1.96186e-24
          5.76298e-29 8.50737e-25 3.40673e-28 -6.45189e-26 1.6126e-24 -9.22659e-24 0 -9.46553e-24 0 2.41694e-28 2.74757e-24 -3.40971e-24
          -1.57579e-24 3.27719e-28 1.21968e-24 0 3.12431e-24 0 3.74758e-25 1.48318e-24 4.53843e-24 1.0353e-25 -6.01678e-24 -5.14664e-24
          -1.93041e-24 1.63058e-25 4.78879e-26 -9.67313e-29 -1.59415e-24 -9.61271e-25 3.72021e-24 -1.89772e-24 2.05567e-24 -1.66783e-24 7.61474e-25 7.72452e-24
          -6.63551e-26 -4.09356e-24 9.35775e-24 4.90685e-24 -2.94951e-24 6.47732e-26 8.28228e-25 -4.64694e-28 9.43025e-25 7.47036e-29 -3.37383e-24 7.31225e-25
          -1.53344e-24 3.35868e-25 -2.38833e-24 -1.07879e-25 -5.21161e-24 -4.71874e-24 8.47371e-24 2.40717e-25 3.16428e-24 9.74948e-25 -3.19339e-25 -7.83646e-25
          -8.94542e-25 5.37497e-25 0 -3.43292e-26 -1.10125e-24 3.91735e-24 -6.88779e-24 6.8883e-24 -5.07598e-24 1.21269e-27 0 0
          2.20889e-25 -6.60142e-28 1.24433e-24 -1.01697e-24 -1.06888e-24 9.86062e-25 -1.65561e-24 -8.00804e-25 -1.17966e-24 2.01687e-26 4.52e-25 -3.31062e-24
          1.19892e-23 -2.30493e-25 -5.7765e-24 4.11497e-25 8.42402e-25 -1.61244e-28 -7.11514e-25 -2.79401e-28 -2.24918e-28 1.01052e-25 -2.56603e-24 4.51463e-25
          -1.14295e-25 9.04295e-24 -3.76361e-24 0 -2.44251e-25 -7.66923e-25 5.8726e-24 -6.74953e-25 0 -4.01669e-25 -2.09354e-28 -3.27335e-25
          5.55662e-25 -1.14758e-24 -1.90791e-24 -3.12646e-25 -2.46609e-24 9.4707e-25 -2.62076e-23 0 2.62363e-23 -1.9274e-23 1.5948e-23 4.00082e-25
        </DataArray>
        <DataArray type="Float32" Name="velocity[2]" NumberOfComponents="1" format="ascii">
          5.81598e-12 3.73963e-09 -2.76809e-09 -2.31246e-09 -3.12341e-09 -3.2358e-09 -2.97326e-09 -2.69091e-09 -2.7411e-09 -3.25258e-09 -3.31991e-09 -3.14923e-09
          -2.62867e-09 -2.08461e-09 -1.42134e-09 -1.36513e-10 1.37694e-08 -2.18748e-09 -1.34233e-09 -1.84419e-09 -1.77495e-09 -1.09204e-09 -1.8635e-09 -2.34125e-09
          -3.49886e-09 -3.59948e-09 -4.67729e-09 -3.13285e-09 -1.68671e-09 -1.90459e-09 -1.21182e-09 2.25417e-08 -5.86228e-10 3.66096e-09 -3.97319e-09 -3.01972e-09
          -1.19226e-09 -1.80563e-09 -3.53645e-09 -4.81338e-09 -4.20664e-09 -8.11595e-09 -3.65659e-09 -2.19876e-09 -2.54694e-09 -3.71998e-09 2.84834e-08 2.13857e-10
          1.76754e-08 -6.41263e-09 -6.76975e-09 -5.15689e-09 -3.81449e-09 -4.67572e-09 -5.85412e-09 -3.93425e-09 -1.18681e-08 -2.69633e-09 -2.4863e-09 -3.31691e-09
          -1.20425e-08 1.69799e-09 -8.47412e-10 -1.15958e-08 -1.2221e-08 -1.75979e-08 -1.67167e-08 -1.41375e-08 -5.98377e-09 -6.73455e-09 -5.57536e-09 -1.89219e-08
          -1.18496e-09 -1.65098e-09 -3.6326e-09 -2.74254e-08 -3.39351e-08 -2.07531e-09 -3.35227e-08 -8.18751e-09 -2.42194e-08 -1.67029e-08 -2.25177e-08 -4.32036e-09
          -3.68708e-09 -4.73126e-09 -2.51567e-08 -9.02579e-10 -1.3243e-09 -3.90246e-09 -2.87033e-08 -3.0924e-08 -1.47022e-09 -1.66612e-08 -7.75693e-09 -3.59511e-08
          -1.36894e-08 -3.3689e-08 -3.06458e-09 -2.12483e-09 -4.51226e-09 -2.87311e-08 -7.6098e-10 -1.12037e-09 -4.0409e-09 -2.62473e-08 -2.88772e-08 -1.88777e-09
          -6.11163e-09 -4.74677e-09 -4.06088e-08 -8.3932e-09 -4.7217e-08 -2.07861e-09 -1.33974e-09 -4.04539e-09 -3.0189e-08 -9.49624e-10 -1.46277e-09 -4.52283e-09
          -2.36336e-08 -2.62681e-08 -1.86692e-09 -2.58605e-09 -3.73209e-09 -4.32405e-08 -3.97891e-09 -5.85406e-08 -1.19493e-09 -7.6763e-10 -4.80052e-09 -2.71271e-08
          -8.93525e-10 -1.32939e-09 -4.9166e-09 -1.97068e-08 -2.54915e-08 -3.55242e-09 -1.50165e-09 -2.53317e-09 -4.34146e-08 -2.58543e-09 -7.06408e-08 -6.85026e-10
          -4.52007e-10 -7.77218e-09 -2.17251e-08 -1.06597e-09 -1.24721e-09 -5.321e-09 -1.37816e-08 -2.25787e-08 -5.2355e-09 -1.62648e-09 -2.27361e-09 -4.23776e-08
          -1.4551e-09 -8.1757e-08 -5.47598e-10 -3.77738e-10 -9.92874e-09 -1.67367e-08 -1.8609e-09 -1.29847e-09 -5.59437e-09 -9.43092e-09 -1.7728e-08 -9.92414e-09
          -1.57323e-09 -2.56731e-09 -4.22816e-08 -1.04975e-09 -8.91862e-08 -2.15919e-09 1.71355e-10 -8.50578e-09 -1.11064e-08 -4.69889e-09 -2.26736e-09 -5.7595e-09
          -6.37677e-09 -1.15803e-08 -8.51875e-09 -1.74837e-09 -3.14293e-09 -4.03545e-08 -2.27982e-09 -9.29118e-08 -9.07336e-09 -9.76511e-10 -6.19688e-09 -5.34343e-09
          -6.93086e-09 -3.22383e-09 -5.65315e-09 -6.35851e-09 -1.35065e-08 -5.31924e-09 -1.88481e-09 -4.25603e-09 -3.68499e-08 -1.06839e-09 -8.72118e-08 -1.56596e-08
          -2.58825e-09 -3.87403e-09 -2.19801e-09 -7.25375e-09 -4.90799e-09 -4.93835e-09 -7.42129e-09 -1.23934e-08 -3.13885e-09 -1.41166e-09 -5.29785e-09 -3.63641e-08
          -6.90442e-10 -7.86407e-08 -1.87007e-08 -4.88047e-09 -3.21963e-09 -1.59736e-09 -6.36935e-09 -6.93718e-09 -4.13667e-09 -9.51472e-09 -1.00884e-08 -1.89489e-09
          -1.34806e-09 -6.28493e-09 -3.59345e-08 -9.21641e-10 -6.78404e-08 -2.11613e-08 -8.19509e-09 -4.18681e-09 -3.80075e-09 -8.70821e-09 -1.08255e-08 -3.21633e-09
          -1.04681e-08 -8.30373e-09 -1.25748e-09 -1.41223e-09 -8.15496e-09 -3.14936e-08 -2.09712e-09 -5.46019e-08 -2.15924e-08 -1.14377e-08 -3.00349e-09 -3.35589e-09
          -8.23002e-09 -1.66622e-08 -2.39858e-09 -1.03622e-08 -6.75245e-09 -1.00561e-09 -1.45751e-09 -1.23676e-08 -2.32771e-08 -3.05735e-09 -4.30304e-08 -2.34731e-08
          -1.56925e-08 -2.72441e-09 -2.90741e-09 -5.5451e-09 -2.07987e-08 -1.92031e-09 -9.53266e-09 -5.44984e-09 -1.34289e-09 -1.28507e-09 -1.56992e-08 -1.56012e-08
          -3.1792e-09 -3.13523e-08 -2.39342e-08 -2.39343e-08 -2.80874e-09 -3.08414e-09 -6.48448e-09 -2.39904e-08 -2.12153e-09 -7.94985e-09 -3.76557e-09 -1.10688e-09
          -1.05973e-09 -1.68771e-08 -9.67862e-09 -3.01967e-09 -2.34707e-08 -1.77165e-08 -3.96645e-08 -2.84345e-09 -2.88429e-09 -7.95323e-09 -2.54297e-08 -2.66267e-09
          -6.23259e-09 -3.0039e-09 -1.28732e-09 -1.03626e-09 -1.62621e-08 -6.30135e-09 -2.96127e-09 -1.88586e-08 -8.79033e-09 -5.17634e-08 -3.12763e-09 -3.5831e-09
          -9.76296e-09 -2.68673e-08 -2.96716e-09 -4.11627e-09 -2.03938e-09 -1.43278e-09 -1.18088e-09 -1.28452e-08 -5.55769e-09 -3.30424e-09 -1.79532e-08 -5.56013e-09
          -5.42658e-08 -3.98058e-09 -5.4471e-09 -1.09384e-08 -2.87556e-08 -4.20361e-09 -2.02395e-09 -1.09798e-09 -1.01236e-09 -1.08865e-09 -7.42816e-09 -5.09395e-09
          -3.56718e-09 -1.91855e-08 -5.37675e-09 -4.8548e-08 -6.5996e-09 -9.41775e-09 -1.51401e-08 -3.04535e-08 -5.30486e-09 -6.27822e-10 -4.66691e-10 -3.46987e-10
          -3.4848e-10 -2.05399e-09 -2.19125e-09 -1.7871e-09 -1.10893e-08 -5.56061e-09 -2.82197e-08 -1.20853e-08 -1.05945e-08 -1.21004e-08 -1.69247e-08 -2.84633e-09
        </DataArray>
        <DataArray type="Float32" Name="z[0]" NumberOfComponents="1" format="ascii">
          0.150578 0.150579 0.15058 0.150582 0.150582 0.150583 0.150584 0.150585 0.150585 0.150586 0.150587 0.150588
          0.150589 0.150591 0.150596 0.150581 0.150582 0.150583 0.150585 0.150586 0.150587 0.150587 0.150588 0.150588
          0.150589 0.15059 0.150591 0.150593 0.150595 0.150599 0.150584 0.150585 0.150587 0.150588 0.150589 0.15059
          0.15059 0.150591 0.150592 0.150593 0.150593 0.150595 0.150596 0.150598 0.150602 0.150588 0.150589 0.15059
          0.150591 0.150592 0.150594 0.150614 0.153255 0.150595 0.150596 0.150597 0.150598 0.150599 0.150601 0.150605
          0.150591 0.150592 0.150593 0.150604 0.162178 0.293528 0.360518 0.384005 0.150598 0.150599 0.1506 0.150601
          0.150602 0.150604 0.150609 0.150594 0.150595 0.150597 0.277071 0.414119 0.428487 0.403669 0.398003 0.150601
          0.150602 0.150603 0.150604 0.150605 0.150607 0.150612 0.150597 0.150598 0.150645 0.360676 0.431454 0.449847