<?xml version="1.0"?>
<VTKFile type="UnstructuredGrid" version="0.1" byte_order="LittleEndian">
  <UnstructuredGrid>
    <Piece NumberOfCells="360" NumberOfPoints="800">
      <CellData Scalars="pressure[0]">
        <DataArray type="Float32" Name="pressure[0]" NumberOfComponents="1" format="ascii">
          2.08104e+07 2.08249e+07 2.12894e+07 2.17727e+07 2.22016e+07 2.27122e+07 2.28744e+07 2.29309e+07 2.29983e+07 2.30705e+07 2.32977e+07 2.36787e+07
          2.39614e+07 2.46371e+07 2.54291e+07 2.08541e+07 2.08685e+07 2.13793e+07 2.18551e+07 2.23473e+07 2.29003e+07 2.30218e+07 2.30651e+07 2.31356e+07
          2.32194e+07 2.35487e+07 2.39375e+07 2.4158e+07 2.4846e+07 2.55976e+07 2.08978e+07 2.09123e+07 2.1446e+07 2.19801e+07 2.24236e+07 2.29584e+07
          2.31115e+07 2.31796e+07 2.32764e+07 2.33979e+07 2.38536e+07 2.43065e+07 2.45019e+07 2.51153e+07 2.58137e+07 2.0942e+07 2.09569e+07 2.13213e+07
          2.21046e+07 2.25355e+07 2.30838e+07 2.32368e+07 2.33027e+07 2.34674e+07 2.36716e+07 2.42734e+07 2.47511e+07 2.49224e+07 2.54282e+07 2.60841e+07
          2.10321e+07 2.10583e+07 1.97624e+07 2.21758e+07 2.25298e+07 2.35671e+07 2.36915e+07 2.37439e+07 2.393e+07 2.42852e+07 2.47755e+07 2.51732e+07
          2.53338e+07 2.57765e+07 2.63479e+07 2.12236e+07 2.12665e+07 2.14928e+07 2.30434e+07 2.36407e+07 2.4209e+07 2.42752e+07 2.43337e+07 2.45222e+07
          2.4879e+07 2.53038e+07 2.55319e+07 2.57071e+07 2.61275e+07 2.66431e+07 2.14671e+07 2.1516e+07 2.2145e+07 2.39242e+07 2.44141e+07 2.48392e+07
          2.49108e+07 2.49896e+07 2.51014e+07 2.54482e+07 2.57489e+07 2.58375e+07 2.60079e+07 2.6503e+07 2.70536e+07 2.18147e+07 2.1869e+07 2.30283e+07
          2.41798e+07 2.49429e+07 2.53729e+07 2.54284e+07 2.54806e+07 2.55921e+07 2.58513e+07 2.60366e+07 2.61022e+07 2.63358e+07 2.68852e+07 2.762e+07
          2.2314e+07 2.23771e+07 2.34475e+07 2.44261e+07 2.55284e+07 2.58515e+07 2.59549e+07 2.60547e+07 2.61191e+07 2.62473e+07 2.63262e+07 2.6352e+07
          2.65969e+07 2.73114e+07 2.81828e+07 2.29171e+07 2.30188e+07 2.36887e+07 2.43652e+07 2.60436e+07 2.62725e+07 2.6503e+07 2.6712e+07 2.66581e+07
          2.6654e+07 2.66714e+07 2.66982e+07 2.69601e+07 2.77394e+07 2.8516e+07 2.38005e+07 2.39448e+07 2.43002e+07 2.4769e+07 2.64095e+07 2.65825e+07
          2.695e+07 2.7263e+07 2.71305e+07 2.70596e+07 2.70219e+07 2.7052e+07 2.72788e+07 2.81017e+07 2.87681e+07 2.44689e+07 2.45858e+07 2.48749e+07
          2.52779e+07 2.67726e+07 2.6886e+07 2.74062e+07 2.78254e+07 2.7865e+07 2.74563e+07 2.74086e+07 2.74694e+07 2.7813e+07 2.85097e+07 2.95452e+07
          2.55976e+07 2.56344e+07 2.56482e+07 2.60087e+07 2.72867e+07 2.74011e+07 2.79598e+07 2.84467e+07 2.85444e+07 2.85047e+07 2.84326e+07 2.86471e+07
          2.91687e+07 3.00567e+07 3.02473e+07 2.65757e+07 2.66097e+07 2.64279e+07 2.6822e+07 2.81225e+07 2.82364e+07 2.87009e+07 2.90663e+07 2.9136e+07
          2.92131e+07 2.9273e+07 2.97429e+07 3.03934e+07 3.09126e+07 3.06766e+07 2.73425e+07 2.73422e+07 2.73736e+07 2.84672e+07 2.89605e+07 2.90237e+07
          2.93322e+07 2.95536e+07 2.96047e+07 2.96845e+07 2.98389e+07 3.05903e+07 3.11743e+07 3.13475e+07 3.11878e+07 2.80269e+07 2.80492e+07 2.8144e+07
          2.92148e+07 2.9454e+07 2.95088e+07 2.97266e+07 2.98695e+07 2.99187e+07 2.99925e+07 3.02838e+07 3.1003e+07 3.15379e+07 3.18432e+07 3.16695e+07
          2.87336e+07 2.87837e+07 2.91713e+07 2.97342e+07 2.98549e+07 2.98929e+07 3.00053e+07 3.01044e+07 3.01523e+07 3.02154e+07 3.06022e+07 3.14597e+07
          3.20374e+07 3.2336e+07 3.21099e+07 2.93033e+07 2.93632e+07 2.97331e+07 3.00121e+07 3.01342e+07 3.01783e+07 3.02662e+07 3.03404e+07 3.03902e+07
          3.04479e+07 3.0924e+07 3.18313e+07 3.24221e+07 3.26659e+07 3.25482e+07 2.96156e+07 2.96819e+07 2.99002e+07 3.02156e+07 3.03787e+07 3.04262e+07
          3.05038e+07 3.05695e+07 3.06154e+07 3.06709e+07 3.11948e+07 3.21983e+07 3.28038e+07 3.29864e+07 3.31518e+07 2.98657e+07 2.99243e+07 3.01201e+07
          3.04337e+07 3.05943e+07 3.06424e+07 3.0718e+07 3.07805e+07 3.08267e+07 3.08885e+07 3.14079e+07 3.25147e+07 3.31802e+07 3.33238e+07 3.37257e+07
          3.0076e+07 3.01424e+07 3.02981e+07 3.05882e+07 3.07875e+07 3.08405e+07 3.0922e+07 3.09884e+07 3.10504e+07 3.11284e+07 3.18632e+07 3.30477e+07
          3.353e+07 3.36819e+07 3.41737e+07 3.02774e+07 3.03464e+07 3.04852e+07 3.07685e+07 3.09716e+07 3.10298e+07 3.11246e+07 3.12009e+07 3.12815e+07
          3.13715e+07 3.23638e+07 3.35952e+07 3.38926e+07 3.40774e+07 3.46099e+07 3.04613e+07 3.05243e+07 3.06913e+07 3.09897e+07 3.11557e+07 3.12227e+07
          3.13345e+07 3.14232e+07 3.15274e+07 3.16398e+07 3.27896e+07 3.40488e+07 3.4304e+07 3.45109e+07 3.49242e+07 3.06294e+07 3.06894e+07 3.0836e+07
          3.11351e+07 3.13476e+07 3.14163e+07 3.15423e+07 3.16458e+07 3.17732e+07 3.19247e+07 3.32591e+07 3.44441e+07 3.47275e+07 3.49151e+07 3.52028e+07
        </DataArray>
        <DataArray type="Float32" Name="pressure[1]" NumberOfComponents="1" format="ascii">
          2.08104e+07 2.08249e+07 2.12894e+07 2.17727e+07 2.22016e+07 2.27122e+07 2.28744e+07 2.29309e+07 2.29983e+07 2.30705e+07 2.32977e+07 2.36787e+07
          2.39614e+07 2.46371e+07 2.54291e+07 2.08541e+07 2.08685e+07 2.13793e+07 2.18551e+07 2.23473e+07 2.29003e+07 2.30218e+07 2.30651e+07 2.31356e+07
          2.32194e+07 2.35487e+07 2.39375e+07 2.4158e+07 2.4846e+07 2.55976e+07 2.08978e+07 2.09123e+07 2.1446e+07 2.19801e+07 2.24236e+07 2.29584e+07
          2.31115e+07 2.31796e+07 2.32764e+07 2.33979e+07 2.38536e+07 2.43065e+07 2.45019e+07 2.51153e+07 2.58137e+07 2.0942e+07 2.09569e+07 2.13213e+07
          2.21046e+07 2.25355e+07 2.30838e+07 2.32368e+07 2.33027e+07 2.34674e+07 2.36716e+07 2.42734e+07 2.47511e+07 2.49224e+07 2.54282e+07 2.60841e+07
          2.10321e+07 2.10583e+07 1.97624e+07 2.21758e+07 2.25298e+07 2.35671e+07 2.36915e+07 2.37439e+07 2.393e+07 2.42852e+07 2.47755e+07 2.51732e+07
          2.53338e+07 2.57765e+07 2.63479e+07 2.12236e+07 2.12665e+07 2.14928e+07 2.30434e+07 2.36407e+07 2.4209e+07 2.42752e+07 2.43337e+07 2.45222e+07
          2.4879e+07 2.53038e+07 2.55319e+07 2.57071e+07 2.61275e+07 2.66431e+07 2.14671e+07 2.1516e+07 2.2145e+07 2.39242e+07 2.44141e+07 2.48392e+07
          2.49108e+07 2.49896e+07 2.51014e+07 2.54482e+07 2.57489e+07 2.58375e+07 2.60079e+07 2.6503e+07 2.70536e+07 2.18147e+07 2.1869e+07 2.30283e+07
          2.41798e+07 2.49429e+07 2.53729e+07 2.54284e+07 2.54806e+07 2.55921e+07 2.58513e+07 2.60366e+07 2.61022e+07 2.63358e+07 2.68852e+07 2.762e+07
          2.2314e+07 2.23771e+07 2.34475e+07 2.44261e+07 2.55284e+07 2.58515e+07 2.59549e+07 2.60547e+07 2.61191e+07 2.62473e+07 2.63262e+07 2.6352e+07
          2.65969e+07 2.73114e+07 2.81828e+07 2.29171e+07 2.30188e+07 2.36887e+07 2.43652e+07 2.60436e+07 2.62725e+07 2.6503e+07 2.6712e+07 2.66581e+07
          2.6654e+07 2.66714e+07 2.66982e+07 2.69601e+07 2.77394e+07 2.8516e+07 2.38005e+07 2.39448e+07 2.43002e+07 2.4769e+07 2.64095e+07 2.65825e+07
          2.695e+07 2.7263e+07 2.71305e+07 2.70596e+07 2.70219e+07 2.7052e+07 2.72788e+07 2.81017e+07 2.87681e+07 2.44689e+07 2.45858e+07 2.48749e+07
          2.52779e+07 2.67726e+07 2.6886e+07 2.74062e+07 2.78254e+07 2.7865e+07 2.74563e+07 2.74086e+07 2.74694e+07 2.7813e+07 2.85097e+07 2.95452e+07
          2.55976e+07 2.56344e+07 2.56482e+07 2.60087e+07 2.72867e+07 2.74011e+07 2.79598e+07 2.84467e+07 2.85444e+07 2.85047e+07 2.84326e+07 2.86471e+07
          2.91687e+07 3.00567e+07 3.02473e+07 2.65757e+07 2.66097e+07 2.64279e+07 2.6822e+07 2.81225e+07 2.82364e+07 2.87009e+07 2.90663e+07 2.9136e+07
          2.92131e+07 2.9273e+07 2.97429e+07 3.03934e+07 3.09126e+07 3.06766e+07 2.73425e+07 2.73422e+07 2.73736e+07 2.84672e+07 2.89605e+07 2.90237e+07
          2.93322e+07 2.95536e+07 2.96047e+07 2.96845e+07 2.98389e+07 3.05903e+07 3.11743e+07 3.13475e+07 3.11878e+07 2.80269e+07 2.80492e+07 2.8144e+07
          2.92148e+07 2.9454e+07 2.95088e+07 2.97266e+07 2.98695e+07 2.99187e+07 2.99925e+07 3.02838e+07 3.1003e+07 3.15379e+07 3.18432e+07 3.16695e+07
          2.87336e+07 2.87837e+07 2.91713e+07 2.97342e+07 2.98549e+07 2.98929e+07 3.00053e+07 3.01044e+07 3.01523e+07 3.02154e+07 3.06022e+07 3.14597e+07
          3.20374e+07 3.2336e+07 3.21099e+07 2.93033e+07 2.93632e+07 2.97331e+07 3.00121e+07 3.01342e+07 3.01783e+07 3.02662e+07 3.03404e+07 3.03902e+07
          3.04479e+07 3.0924e+07 3.18313e+07 3.24221e+07 3.26659e+07 3.25482e+07 2.96156e+07 2.96819e+07 2.99002e+07 3.02156e+07 3.03787e+07 3.04262e+07
          3.05038e+07 3.05695e+07 3.06154e+07 3.06709e+07 3.11948e+07 3.21983e+07 3.28038e+07 3.29864e+07 3.31518e+07 2.98657e+07 2.99243e+07 3.01201e+07
          3.04337e+07 3.05943e+07 3.06424e+07 3.0718e+07 3.07805e+07 3.08267e+07 3.08885e+07 3.14079e+07 3.25147e+07 3.31802e+07 3.33238e+07 3.37257e+07
          3.0076e+07 3.01424e+07 3.02981e+07 3.05882e+07 3.07875e+07 3.08405e+07 3.0922e+07 3.09884e+07 3.10504e+07 3.11284e+07 3.18632e+07 3.30477e+07
          3.353e+07 3.36819e+07 3.41737e+07 3.02774e+07 3.03464e+07 3.04852e+07 3.07685e+07 3.09716e+07 3.10298e+07 3.11246e+07 3.12009e+07 3.12815e+07
          3.13715e+07 3.23638e+07 3.35952e+07 3.38926e+07 3.40774e+07 3.46099e+07 3.04613e+07 3.05243e+07 3.06913e+07 3.09897e+07 3.11557e+07 3.12227e+07
          3.13345e+07 3.14232e+07 3.15274e+07 3.16398e+07 3.27896e+07 3.40488e+07 3.4304e+07 3.45109e+07 3.49242e+07 3.06294e+07 3.06894e+07 3.0836e+07
          3.11351e+07 3.13476e+07 3.14163e+07 3.15423e+07 3.16458e+07 3.17732e+07 3.19247e+07 3.32591e+07 3.44441e+07 3.47275e+07 3.49151e+07 3.52028e+07
        </DataArray>
        <DataArray type="Float32" Name="pressure[2]" NumberOfComponents="1" format="ascii">
          2.08104e+07 2.08249e+07 2.12894e+07 2.17727e+07 2.22016e+07 2.27122e+07 2.28744e+07 2.29309e+07 2.29983e+07 2.30705e+07 2.32977e+07 2.36787e+07
          2.39614e+07 2.46371e+07 2.54291e+07 2.08541e+07 2.08685e+07 2.13793e+07 2.18551e+07 2.23473e+07 2.29003e+07 2.30218e+07 2.30651e+07 2.31356e+07
          2.32194e+07 2.35487e+07 2.39375e+07 2.4158e+07 2.4846e+07 2.55976e+07 2.08978e+07 2.09123e+07 2.1446e+07 2.19801e+07 2.24236e+07 2.29584e+07
          2.31115e+07 2.31796e+07 2.32764e+07 2.33979e+07 2.38536e+07 2.43065e+07 2.45019e+07 2.51153e+07 2.58137e+07 2.0942e+07 2.09569e+07 2.13213e+07
          2.21046e+07 2.25355e+07 2.30838e+07 2.32368e+07 2.33027e+07 2.34674e+07 2.36716e+07 2.42734e+07 2.47511e+07 2.49224e+07 2.54282e+07 2.60841e+07
          2.10321e+07 2.10583e+07 1.97624e+07 2.21758e+07 2.25298e+07 2.35671e+07 2.36915e+07 2.37439e+07 2.393e+07 2.42852e+07 2.47755e+07 2.51732e+07
          2.53338e+07 2.57765e+07 2.63479e+07 2.12236e+07 2.12665e+07 2.14928e+07 2.30434e+07 2.36407e+07 2.4209e+07 2.42752e+07 2.43337e+07 2.45222e+07
          2.4879e+07 2.53038e+07 2.55319e+07 2.57071e+07 2.61275e+07 2.66431e+07 2.14671e+07 2.1516e+07 2.2145e+07 2.39242e+07 2.44141e+07 2.48392e+07
          2.49108e+07 2.49896e+07 2.51014e+07 2.54482e+07 2.57489e+07 2.58375e+07 2.60079e+07 2.6503e+07 2.70536e+07 2.18147e+07 2.1869e+07 2.30283e+07
          2.41798e+07 2.49429e+07 2.53729e+07 2.54284e+07 2.54806e+07 2.55921e+07 2.58513e+07 2.60366e+07 2.61022e+07 2.63358e+07 2.68852e+07 2.762e+07
          2.2314e+07 2.23771e+07 2.34475e+07 2.44261e+07 2.55284e+07 2.58515e+07 2.59549e+07 2.60547e+07 2.61191e+07 2.62473e+07 2.63262e+07 2.6352e+07
          2.65969e+07 2.73114e+07 2.81828e+07 2.29171e+07 2.30188e+07 2.36887e+07 2.43652e+07 2.60436e+07 2.62725e+07 2.6503e+07 2.6712e+07 2.66581e+07
          2.6654e+07 2.66714e+07 2.66982e+07 2.69601e+07 2.77394e+07 2.8516e+07 2.38005e+07 2.39448e+07 2.43002e+07 2.4769e+07 2.64095e+07 2.65825e+07
          2.695e+07 2.7263e+07 2.71305e+07 2.70596e+07 2.70219e+07 2.7052e+07 2.72788e+07 2.81017e+07 2.87681e+07 2.44689e+07 2.45858e+07 2.48749e+07
          2.52779e+07 2.67726e+07 2.6886e+07 2.74062e+07 2.78254e+07 2.7865e+07 2.74563e+07 2.74086e+07 2.74694e+07 2.7813e+07 2.85097e+07 2.95452e+07
          2.55976e+07 2.56344e+07 2.56482e+07 2.60087e+07 2.72867e+07 2.74011e+07 2.79598e+07 2.84467e+07 2.85444e+07 2.85047e+07 2.84326e+07 2.86471e+07
          2.91687e+07 3.00567e+07 3.02473e+07 2.65757e+07 2.66097e+07 2.64279e+07 2.6822e+07 2.81225e+07 2.82364e+07 2.87009e+07 2.90663e+07 2.9136e+07
          2.92131e+07 2.9273e+07 2.97429e+07 3.03934e+07 3.09126e+07 3.06766e+07 2.73425e+07 2.73422e+07 2.73736e+07 2.84672e+07 2.89605e+07 2.90237e+07
          2.93322e+07 2.95536e+07 2.96047e+07 2.96845e+07 2.98389e+07 3.05903e+07 3.11743e+07 3.13475e+07 3.11878e+07 2.80269e+07 2.80492e+07 2.8144e+07
          2.92148e+07 2.9454e+07 2.95088e+07 2.97266e+07 2.98695e+07 2.99187e+07 2.99925e+07 3.02838e+07 3.1003e+07 3.15379e+07 3.18432e+07 3.16695e+07
          2.87336e+07 2.87837e+07 2.91713e+07 2.97342e+07 2.98549e+07 2.98929e+07 3.00053e+07 3.01044e+07 3.01523e+07 3.02154e+07 3.06022e+07 3.14597e+07
          3.20374e+07 3.2336e+07 3.21099e+07 2.93033e+07 2.93632e+07 2.97331e+07 3.00121e+07 3.01342e+07 3.01783e+07 3.02662e+07 3.03404e+07 3.03902e+07
          3.04479e+07 3.0924e+07 3.18313e+07 3.24221e+07 3.26659e+07 3.25482e+07 2.96156e+07 2.96819e+07 2.99002e+07 3.02156e+07 3.03787e+07 3.04262e+07
          3.05038e+07 3.05695e+07 3.06154e+07 3.06709e+07 3.11948e+07 3.21983e+07 3.28038e+07 3.29864e+07 3.31518e+07 2.98657e+07 2.99243e+07 3.01201e+07
          3.04337e+07 3.05943e+07 3.06424e+07 3.0718e+07 3.07805e+07 3.08267e+07 3.08885e+07 3.14079e+07 3.25147e+07 3.31802e+07 3.33238e+07 3.37257e+07
          3.0076e+07 3.01424e+07 3.02981e+07 3.05882e+07 3.07875e+07 3.08405e+07 3.0922e+07 3.09884e+07 3.10504e+07 3.11284e+07 3.18632e+07 3.30477e+07
          3.353e+07 3.36819e+07 3.41737e+07 3.02774e+07 3.03464e+07 3.04852e+07 3.07685e+07 3.09716e+07 3.10298e+07 3.11246e+07 3.12009e+07 3.12815e+07
          3.13715e+07 3.23638e+07 3.35952e+07 3.38926e+07 3.40774e+07 3.46099e+07 3.04613e+07 3.05243e+07 3.06913e+07 3.09897e+07 3.11557e+07 3.12227e+07
          3.13345e+07 3.14232e+07 3.15274e+07 3.16398e+07 3.27896e+07 3.40488e+07 3.4304e+07 3.45109e+07 3.49242e+07 3.06294e+07 3.06894e+07 3.0836e+07
          3.11351e+07 3.13476e+07 3.14163e+07 3.15423e+07 3.16458e+07 3.17732e+07 3.19247e+07 3.32591e+07 3.44441e+07 3.47275e+07 3.49151e+07 3.52028e+07
        </DataArray>
        <DataArray type="Float32" Name="velocity[0]" NumberOfComponents="1" format="ascii">
          -5.1129e-11 2.76394e-08 3.18959e-10 9.3582e-09 -7.64806e-11 -1.58681e-09 -1.02871e-09 8.56619e-10 8.63921e-10 -1.3332e-09 -2.29141e-09 -3.37209e-09
          -2.43726e-09 -7.48688e-10 -2.87527e-09 -1.4971e-09 8.03559e-08 6.51402e-10 1.95999e-08 4.73958e-10 1.77964e-09 6.76587e-09 4.22646e-09 8.40452e-10
          -5.07977e-09 -4.81323e-09 -1.40584e-08 -8.7415e-09 -2.2359e-09 -7.59319e-09 -9.96065e-09 1.22601e-07 1.1947e-09 6.24222e-08 1.00683e-09 4.27447e-09
          9.86014e-09 5.68834e-09 -3.91713e-09 -1.10866e-08 -6.06869e-09 -3.49851e-08 -1.20573e-08 -4.45725e-09 -1.12671e-08 -2.42647e-08 1.54456e-07 5.93069e-09
          1.691e-07 4.60703e-09 -9.5296e-09 -1.95167e-08 -2.1029e-08 -1.48602e-08 -2.11377e-08 -8.37856e-09 -6.16893e-08 -8.48161e-09 -6.207e-09 -1.5165e-08
          -8.96295e-08 -1.9667e-08 2.9656e-10 3.13421e-08 -6.59913e-09 -4.71275e-08 -6.33658e-08 -6.53243e-08 -1.89377e-08 -2.01429e-08 -1.10816e-08 -1.00912e-07
          -4.23931e-09 -5.58632e-09 -1.84717e-08 -1.57152e-07 -1.91381e-07 -6.11206e-09 -1.19867e-07 -2.03723e-08 -1.14571e-07 -7.54231e-08 -1.06885e-07 -1.43056e-08
          -8.91603e-09 -1.46062e-08 -1.38985e-07 -2.45354e-09 -4.40752e-09 -2.06033e-08 -1.60618e-07 -1.7106e-07 -3.5847e-09 -4.02422e-08 -1.43577e-08 -1.74534e-07
          -5.73171e-08 -1.71919e-07 -1.01956e-08 -3.79023e-09 -1.67687e-08 -1.58107e-07 -1.97932e-09 -4.22097e-09 -2.20326e-08 -1.46867e-07 -1.58938e-07 -3.43461e-09
          -7.74952e-09 -8.97376e-09 -2.03929e-07 -3.26013e-08 -2.48567e-07 -6.63135e-09 -2.40593e-09 -1.77907e-08 -1.65057e-07 -1.54813e-09 -4.2173e-09 -2.36633e-08
          -1.31229e-07 -1.42471e-07 -1.80633e-09 -4.52203e-10 -7.80677e-09 -2.21391e-07 -1.20838e-08 -3.14819e-07 -4.81113e-09 -2.51631e-09 -2.82076e-08 -1.50963e-07
          -1.40898e-09 -3.7334e-09 -2.58549e-08 -1.04627e-07 -1.29901e-07 -7.91538e-09 1.70045e-10 -5.93542e-09 -2.25226e-07 -4.0542e-09 -3.82807e-07 -4.22927e-09
          -3.02985e-09 -4.70288e-08 -1.20266e-07 -2.06926e-09 -3.16416e-09 -2.80566e-08 -7.36557e-08 -1.1666e-07 -2.04437e-08 -2.05973e-09 -5.32344e-09 -2.23375e-07
          -1.37089e-09 -4.47126e-07 -4.75731e-09 -4.22174e-09 -6.20684e-08 -8.43132e-08 -4.78536e-09 -3.82461e-09 -2.99788e-08 -4.74679e-08 -8.42832e-08 -4.36084e-08
          -2.248e-09 -8.03811e-09 -2.2635e-07 -1.1446e-09 -4.89929e-07 -1.51823e-08 -6.03895e-09 -5.51041e-08 -4.93834e-08 -1.41325e-08 -7.55697e-09 -3.13475e-08
          -3.43496e-08 -6.8097e-08 -4.91388e-08 -4.22183e-09 -1.28327e-08 -2.14763e-07 -1.64584e-09 -5.02082e-07 -4.54321e-08 -7.50053e-09 -3.33427e-08 -2.17058e-08
          -2.81415e-08 -1.42958e-08 -3.1838e-08 -3.67092e-08 -7.87809e-08 -2.90888e-08 -5.165e-09 -1.92306e-08 -2.00043e-07 -1.68863e-09 -4.73746e-07 -7.93445e-08
          -1.26699e-08 -1.88538e-08 -6.70672e-09 -3.25741e-08 -2.55685e-08 -3.0353e-08 -4.51804e-08 -7.33831e-08 -1.60964e-08 -3.64621e-09 -2.58902e-08 -1.98992e-07
          -1.19955e-09 -4.28635e-07 -9.59088e-08 -2.12985e-08 -1.27271e-08 -3.5082e-09 -3.01337e-08 -3.97577e-08 -2.69292e-08 -5.59527e-08 -5.82912e-08 -7.9196e-09
          -3.3114e-09 -3.18411e-08 -1.96527e-07 -1.48777e-09 -3.64072e-07 -1.00299e-07 -3.0366e-08 -7.88414e-09 -4.75666e-09 -3.399e-08 -5.83067e-08 -2.25288e-08
          -5.986e-08 -4.58927e-08 -3.72515e-09 -4.31997e-09 -4.50193e-08 -1.71833e-07 -2.87753e-09 -2.88125e-07 -1.01073e-07 -4.74458e-08 -3.35813e-09 -4.70391e-09
          -2.76539e-08 -8.63399e-08 -1.78013e-08 -5.85703e-08 -3.62785e-08 -1.5962e-09 -2.92065e-09 -6.65515e-08 -1.23604e-07 -4.41064e-09 -2.19831e-07 -1.08925e-07
          -7.15485e-08 -2.39574e-09 -3.18535e-09 -1.79416e-08 -1.127e-07 -1.38331e-08 -5.26029e-08 -2.58534e-08 -1.08841e-09 -1.17529e-09 -8.27148e-08 -7.864e-08
          -4.64618e-09 -1.56677e-07 -1.08725e-07 -1.12213e-07 -1.39934e-09 -2.62614e-09 -2.34331e-08 -1.28695e-07 -1.20726e-08 -4.35472e-08 -1.74004e-08 -1.3305e-09
          -5.61488e-10 -8.85183e-08 -4.48909e-08 -3.88872e-09 -1.14645e-07 -7.02748e-08 -1.94274e-07 -2.43635e-09 -3.72737e-09 -3.48491e-08 -1.36371e-07 -1.29615e-08
          -3.32561e-08 -1.17299e-08 -1.24027e-09 -1.39828e-10 -8.25953e-08 -2.3577e-08 -3.34476e-09 -9.01879e-08 -2.93922e-08 -2.69429e-07 -3.81693e-09 -6.86181e-09
          -4.24237e-08 -1.42421e-07 -1.48646e-08 -2.09109e-08 -5.98118e-09 -1.98346e-09 -7.61799e-10 -6.12132e-08 -1.60948e-08 -3.27487e-09 -8.50833e-08 -1.59433e-08
          -2.84792e-07 -3.48537e-09 -1.3198e-08 -4.64279e-08 -1.48556e-07 -1.84232e-08 -9.75868e-09 -2.39053e-09 -8.94489e-10 -5.03654e-10 -3.06277e-08 -1.20424e-08
          -2.6897e-09 -8.97567e-08 -1.28477e-08 -2.45357e-07 -4.83744e-09 -2.27628e-08 -6.07772e-08 -1.5467e-07 -2.40281e-08 -2.585e-09 -5.38341e-10 1.98862e-10
          7.50098e-11 -7.2435e-09 -4.60091e-09 -9.8499e-10 -4.57402e-08 -5.98404e-09 -1.06076e-07 -3.191e-09 -1.38086e-08 -3.62614e-08 -7.94636e-08 -1.34859e-08
        </DataArray>
        <DataArray type="Float32" Name="velocity[1]" NumberOfComponents="1" format="ascii">
          7.94604e-27 4.39188e-24 9.98157e-26 1.45438e-24 1.1886e-26 0 1.59874e-25 -1.20482e-25 1.30608e-27 6.12056e-24 -3.90325e-24 6.06582e-27
          2.47278e-24 -9.59433e-25 4.47341e-25 2.16774e-25 3.81263e-24 9.60719e-26 1.37299e-25 -1.86902e-25 8.69361e-24 1.37734e-24 3.58041e-25 -8.32002e-24
          -5.90124e-26 0 8.10272e-28 -1.00605e-27 -2.37417e-28 2.86369e-25 1.09856e-24 -5.9213e-24 -1.31047e-24 6.51779e-24 -2.09327e-25 0
          9.05817e-25 1.55631e-25 -6.01474e-25 0 7.42356e-24 -1.21943e-23 0 1.13645e-24 -2.83623e-25 2.28316e-24 1.01569e-23 -1.2063e-24
          -1.6492e-23 -1.30123e-24 1.29023e-23 -2.81023e-23 3.57662e-23 -3.5713e-24 1.06029e-24 3.90212e-24 -4.73322e-24 2.89606e-24 -1.2827e-24 9.63032e-25
          -8.98955e-26 -5.86866e-23 4.89159e-24 7.96033e-24 -3.61906e-25 -3.74354e-24 -1.58889e-25 2.70313e-26 7.82271e-25 -5.77561e-24 4.39058e-24 -8.12375e-24
          5.97176e-28 1.38353e-25 -1.53173e-24 -1.16279e-25 5.31382e-24 4.25372e-26 3.58199e-24 -8.39276e-26 -6.11912e-24 0 3.8081e-26 6.20554e-25
          7.27964e-25 -3.25388e-25 7.47539e-24 -1.24087e-24 7.36928e-25 1.53271e-24 -7.77686e-25 6.80799e-25 0 4.07087e-24 -8.80636e-25 -1.09474e-23
          1.24063e-25 6.70398e-26 -1.73464e-24 -4.58925e-27 9.77697e-28 3.13605e-28 1.40301e-26 4.81057e-28 -1.67027e-24 -1.60163e-25 1.16342e-23 1.69098e-24
          1.4742e-24 1.00391e-25 1.3233e-23 -3.07539e-27 8.62535e-27 3.42707e-25 5.94238e-27 -2.33179e-24 -1.20063e-23 5.06303e-28 -3.20944e-25 1.9237e-24
          -1.35999e-24 -8.10264e-24 1.17854e-25 -2.30507e-24 -1.05414e-25 2.49213e-24 0 0 2.85442e-25 -6.85343e-28 2.20641e-25 4.30868e-24
          9.7065e-28 5.93487e-26 5.45045e-28 -9.59001e-24 1.03983e-24 1.38217e-24 -4.40008e-25 -2.11228e-24 2.88054e-24 -5.39656e-24 5.64075e-24 -1.31407e-25
          -5.69224e-26 1.59668e-25 3.52716e-24 -7.77559e-25 0 -2.09447e-24 3.08421e-24 1.33586e-25 9.08453e-25 -2.19476e-25 2.02735e-24 -8.56917e-28
          -3.51484e-24 8.71973e-24 5.76563e-26 1.27075e-25 -5.19197e-25 6.54399e-24 1.72284e-24 -2.53884e-25 1.26942e-25 -2.6004e-24 7.46644e-24 -2.68919e-24
          -1.48737e-25 -1.45084e-24 -1.77304e-23 2.97265e-26 2.29765e-24 -3.48606e-24 -1.53972e-25 1.54164e-24 2.90298e-24 -1.53799e-24 9.8083e-25 -8.49753e-26
          2.73784e-24 4.67453e-24 0 -2.3259e-25 4.15516e-25 2.08625e-24 4.88363e-26 -4.02789e-25 -3.14021e-24 7.94457e-28 -1.88228e-24 -7.64603e-25
          1.10421e-24 -8.10459e-25 -4.05222e-28 2.29185e-25 -1.09618e-28 8.62294e-25 1.71485e-25 1.02125e-27 1.46132e-23 -4.07385e-26 -3.99583e-24 5.72602e-24
          -9.39198e-25 1.88164e-24 1.99266e-24 -4.0944e-24 2.2858e-28 -2.24755e-24 -2.96457e-24 -5.07215e-24 1.10438e-27 3.58346e-25 4.55468e-25 2.9193e-28
          -3.44878e-26 -7.40224e-24 1.95132e-24 0 0 2.777e-25 3.43758e-24 -4.31338e-25 4.18545e-24 0 1.08177e-24 0
          -3.06313e-25 4.70179e-25 1.28672e-28 7.92811e-26 -7.02107e-24 2.69713e-28 2.19332e-28 7.84523e-29 3.6358e-24 -3.47293e-29 -1.08294e-24 -1.93703e-24
          2.44185e-28 8.45024e-25 3.51937e-28 -5.93586e-26 1.57902e-24 -9.00386e-24 0 -9.26788e-24 0 -8.04775e-29 2.69434e-24 -3.34386e-24
          -1.54825e-24 1.53806e-28 1.20263e-24 0 3.14359e-24 0 3.65304e-25 1.49367e-24 4.39288e-24 1.00959e-25 -5.83146e-24 -5.0032e-24
          -1.89057e-24 1.59731e-25 4.72043e-26 6.11107e-29 -1.56849e-24 -9.47192e-25 3.73429e-24 -1.91553e-24 2.07393e-24 -1.68218e-24 7.44564e-25 7.56433e-24
          -6.43727e-26 -3.98314e-24 9.13241e-24 4.81622e-24 -2.89553e-24 6.33676e-26 8.14643e-25 -3.30381e-28 9.29034e-25 1.91257e-28 -3.39257e-24 7.36028e-25
          -1.5407e-24 3.14993e-25 -2.33911e-24 -1.06109e-25 -5.09828e-24 -4.60909e-24 8.32522e-24 2.36251e-25 3.10687e-24 9.59516e-25 -3.12805e-25 -7.72737e-25
          -8.98537e-25 5.39578e-25 0 -3.46492e-26 -1.07813e-24 3.87762e-24 -6.81705e-24 6.81824e-24 -4.99773e-24 8.5238e-28 0 0
          2.17738e-25 -5.48464e-28 1.2248e-24 -1.02005e-24 -1.0732e-24 9.89182e-25 -1.66098e-24 -7.45364e-25 -1.15594e-24 1.98142e-26 4.58406e-25 -3.26334e-24
          1.17901e-23 -2.26399e-25 -5.67519e-24 4.04271e-25 8.2791e-25 -1.7722e-29 -7.12833e-25 -2.44513e-28 -3.63009e-28 1.00494e-25 -2.50886e-24 4.41966e-25
          -1.11853e-25 8.91571e-24 -3.7068e-24 0 -2.40043e-25 -7.54149e-25 5.76886e-24 -6.62345e-25 0 -4.02101e-25 -3.20766e-28 -3.27636e-25
          5.55569e-25 -1.12527e-24 -1.8835e-24 -3.07279e-25 -2.40758e-24 9.2999e-25 -2.57492e-23 0 2.57811e-23 -1.89448e-23 1.56797e-23 3.93171e-25
        </DataArray>
        <DataArray type="Float32" Name="velocity[2]" NumberOfComponents="1" format="ascii">
          4.58419e-12 3.54999e-09 -2.59044e-09 -1.38686e-09 -3.42648e-09 -3.56449e-09 -3.35046e-09 -3.00899e-09 -3.0797e-09 -3.45861e-09 -3.41378e-09 -3.24574e-09
          -2.70853e-09 -2.14492e-09 -1.46438e-09 -1.60853e-10 1.31491e-08 -2.0797e-09 1.30959e-09 -2.07003e-09 -2.06961e-09 -1.65308e-09 -2.40213e-09 -3.01388e-09
          -3.90274e-09 -3.73209e-09 -4.90426e-09 -3.2708e-09 -1.74344e-09 -1.95211e-09 -1.27375e-09 2.1736e-08 -5.1288e-10 8.23856e-09 -4.59981e-09 -3.86354e-09
          -2.61185e-09 -3.16799e-09 -4.6064e-09 -5.49078e-09 -4.38605e-09 -8.60209e-09 -3.79042e-09 -2.25153e-09 -2.59614e-09 -3.78083e-09 2.74958e-08 2.73609e-10
          2.55393e-08 -6.79833e-09 -8.90896e-09 -9.51846e-09 -8.47048e-09 -6.28534e-09 -6.72085e-09 -4.13993e-09 -1.27032e-08 -2.75736e-09 -2.51402e-09 -3.36138e-09
          -1.18908e-08 1.45416e-09 -6.59058e-10 -4.73566e-10 -8.86813e-09 -1.39833e-08 -1.51606e-08 -1.45023e-08 -6.07155e-09 -6.8409e-09 -5.50752e-09 -1.97276e-08
          -1.19392e-09 -1.66125e-09 -3.66947e-09 -2.70351e-08 -3.32103e-08 -1.49098e-09 -2.42627e-08 -9.38622e-09 -2.42057e-08 -1.56684e-08 -2.08568e-08 -4.09585e-09
          -3.50175e-09 -4.55928e-09 -2.56419e-08 -8.88718e-10 -1.3204e-09 -3.92916e-09 -2.86559e-08 -3.09342e-08 -1.39578e-09 -9.21956e-09 -6.42786e-09 -3.41343e-08
          -1.29119e-08 -3.22958e-08 -2.81243e-09 -1.8833e-09 -4.22391e-09 -2.87128e-08 -7.45449e-10 -1.11778e-09 -4.06337e-09 -2.63504e-08 -2.92993e-08 -2.36903e-09
          -3.51895e-09 -4.06224e-09 -3.80456e-08 -7.77293e-09 -4.53281e-08 -1.81313e-09 -1.13573e-09 -3.78914e-09 -2.971e-08 -9.2716e-10 -1.4516e-09 -4.53588e-09
          -2.35942e-08 -2.6342e-08 -1.91559e-09 -1.94238e-09 -3.47496e-09 -4.08461e-08 -3.77953e-09 -5.64598e-08 -1.00357e-09 -6.3757e-10 -4.56299e-09 -2.6438e-08
          -8.77879e-10 -1.32528e-09 -4.92333e-09 -1.96416e-08 -2.54561e-08 -3.52438e-09 -1.40127e-09 -2.43196e-09 -4.13051e-08 -2.5062e-09 -6.83856e-08 -6.53445e-10
          -4.18778e-10 -7.56927e-09 -2.09002e-08 -1.05009e-09 -1.2579e-09 -5.31373e-09 -1.37715e-08 -2.25072e-08 -5.39612e-09 -1.66681e-09 -2.23756e-09 -4.06028e-08
          -1.41396e-09 -7.92787e-08 -5.03674e-10 -3.53973e-10 -1.01626e-08 -1.48732e-08 -1.83422e-09 -1.36055e-09 -5.55854e-09 -9.3043e-09 -1.79313e-08 -1.04597e-08
          -1.64222e-09 -2.52623e-09 -4.08237e-08 -1.02239e-09 -8.68122e-08 -2.10193e-09 1.5233e-10 -9.26016e-09 -1.00006e-08 -4.27382e-09 -2.17583e-09 -5.70987e-09
          -5.99794e-09 -1.14919e-08 -8.7728e-09 -1.79932e-09 -3.10088e-09 -3.91914e-08 -2.22913e-09 -9.05337e-08 -8.86798e-09 -9.48745e-10 -6.0655e-09 -5.30403e-09
          -6.67757e-09 -3.11969e-09 -5.59046e-09 -6.37337e-09 -1.35555e-08 -5.37432e-09 -1.90054e-09 -4.20945e-09 -3.59488e-08 -1.04702e-09 -8.49636e-08 -1.52939e-08
          -2.52888e-09 -3.77087e-09 -2.15722e-09 -7.08388e-09 -4.79179e-09 -4.87621e-09 -7.49928e-09 -1.2412e-08 -3.12817e-09 -1.39199e-09 -5.20676e-09 -3.55621e-08
          -6.78617e-10 -7.65726e-08 -1.82473e-08 -4.76272e-09 -3.143e-09 -1.57007e-09 -6.25379e-09 -6.80615e-09 -4.08199e-09 -9.61428e-09 -1.01226e-08 -1.88732e-09
          -1.34226e-09 -6.18075e-09 -3.51865e-08 -9.08118e-10 -6.60349e-08 -2.06357e-08 -8.00674e-09 -4.09508e-09 -3.72304e-09 -8.55533e-09 -1.06389e-08 -3.17092e-09
          -1.05464e-08 -8.34653e-09 -1.24795e-09 -1.39923e-09 -8.01553e-09 -3.08607e-08 -2.07028e-09 -5.3166e-08 -2.10487e-08 -1.1164e-08 -2.94374e-09 -3.2914e-09
          -8.08441e-09 -1.63852e-08 -2.36347e-09 -1.04227e-08 -6.79551e-09 -1.00853e-09 -1.45094e-09 -1.21495e-08 -2.28248e-08 -3.02323e-09 -4.19779e-08 -2.29135e-08
          -1.53203e-08 -2.67229e-09 -2.85319e-09 -5.44768e-09 -2.0458e-08 -1.89083e-09 -9.57702e-09 -5.47673e-09 -1.34858e-09 -1.28695e-09 -1.54082e-08 -1.53074e-08
          -3.14418e-09 -3.0647e-08 -2.3403e-08 -2.34062e-08 -2.7565e-09 -3.02778e-09 -6.37173e-09 -2.3599e-08 -2.08948e-09 -7.97809e-09 -3.77915e-09 -1.11033e-09
          -1.06212e-09 -1.65504e-08 -9.50566e-09 -2.98698e-09 -2.29635e-08 -1.73562e-08 -3.88578e-08 -2.79164e-09 -2.83247e-09 -7.8181e-09 -2.50125e-08 -2.62055e-09
          -6.24969e-09 -3.01314e-09 -1.29056e-09 -1.03876e-09 -1.59374e-08 -6.19334e-09 -2.92407e-09 -1.84577e-08 -8.62638e-09 -5.0763e-08 -3.07152e-09 -3.51958e-09
          -9.59934e-09 -2.64251e-08 -2.92016e-09 -4.12497e-09 -2.04399e-09 -1.43558e-09 -1.18314e-09 -1.25937e-08 -5.46502e-09 -3.25767e-09 -1.76011e-08 -5.46387e-09
          -5.32529e-08 -3.91003e-09 -5.35204e-09 -1.07552e-08 -2.82798e-08 -4.13573e-09 -2.02682e-09 -1.09939e-09 -1.01355e-09 -1.08969e-09 -7.29539e-09 -5.01187e-09
          -3.51468e-09 -1.88408e-08 -5.28617e-09 -4.76658e-08 -6.48365e-09 -9.25489e-09 -1.48835e-08 -2.99464e-08 -5.21827e-09 -6.28309e-10 -4.66925e-10 -3.46934e-10
          -3.4819e-10 -2.0216e-09 -2.15698e-09 -1.76061e-09 -1.08986e-08 -5.46721e-09 -2.77177e-08 -1.18738e-08 -1.04106e-08 -1.18933e-08 -1.6641e-08 -2.79965e-09
        </DataArray>
        <DataArray type="Float32" Name="z[0]" NumberOfComponents="1" format="ascii">
          0.150578 0.150579 0.15058 0.150582 0.150582 0.150583 0.150584 0.150585 0.150585 0.150586 0.150587 0.150588
          0.150589 0.150591 0.150596 0.150581 0.150582 0.150583 0.150585 0.150586 0.150587 0.150587 0.150588 0.150588
          0.150589 0.15059 0.150591 0.150593 0.150595 0.150599 0.150584 0.150585 0.150587 0.150588 0.150589 0.15059
          0.15059 0.150591 0.150592 0.150593 0.150593 0.150595 0.150596 0.150598 0.150602 0.150588 0.150589 0.15059
          0.150591 0.150592 0.153708 0.159734 0.169174 0.150595 0.150596 0.150597 0.150598 0.150599 0.150601 0.150605
          0.150591 0.150592 0.150593 0.191929 0.209518 0.396074 0.393294 0.388132 0.150598 0.150599 0.1506 0.150601
          0.150602 0.150604 0.150609 0.150594 0.150595 0.153 0.402382 0.429046 0.441113 0.410841 0.403824 0.150601
          0.150602 0.150603 0.150604 0.150605 0.150607 0.150612 0.150597 0.150598 0.156329 0.405674 0.446311 0.456734