<?xml version="1.0"?>
<VTKFile type="UnstructuredGrid" version="0.1" byte_order="LittleEndian">
  <UnstructuredGrid>
    <Piece NumberOfCells="360" NumberOfPoints="800">
      <CellData Scalars="pressure[0]">
        <DataArray type="Float32" Name="pressure[0]" NumberOfComponents="1" format="ascii">
          2.10048e+07 2.10194e+07 2.16099e+07 2.22262e+07 2.25986e+07 2.30265e+07 2.31601e+07 2.32099e+07 2.327e+07 2.3337e+07 2.35288e+07 2.3846e+07
          2.40819e+07 2.47151e+07 2.54686e+07 2.10488e+07 2.10634e+07 2.17164e+07 2.23648e+07 2.27744e+07 2.32046e+07 2.33027e+07 2.33415e+07 2.34035e+07
          2.34795e+07 2.37465e+07 2.40673e+07 2.42582e+07 2.49088e+07 2.56353e+07 2.10932e+07 2.11076e+07 2.17899e+07 2.251e+07 2.28729e+07 2.32755e+07
          2.33934e+07 2.34508e+07 2.35316e+07 2.36376e+07 2.39984e+07 2.43631e+07 2.45516e+07 2.51537e+07 2.58472e+07 2.11832e+07 2.12282e+07 2.16651e+07
          2.26444e+07 2.29979e+07 2.33839e+07 2.34901e+07 2.35429e+07 2.36696e+07 2.38374e+07 2.43196e+07 2.47354e+07 2.49221e+07 2.54457e+07 2.61117e+07
          2.13158e+07 2.13399e+07 1.97977e+07 2.27457e+07 2.31828e+07 2.35901e+07 2.36604e+07 2.36971e+07 2.3904e+07 2.42219e+07 2.47042e+07 2.50919e+07
          2.52852e+07 2.5777e+07 2.63719e+07 2.1516e+07 2.15591e+07 2.21568e+07 2.32606e+07 2.35806e+07 2.38519e+07 2.38927e+07 2.3923e+07 2.42046e+07
          2.46671e+07 2.51592e+07 2.54147e+07 2.56231e+07 2.61098e+07 2.66643e+07 2.17727e+07 2.18231e+07 2.28419e+07 2.37574e+07 2.39696e+07 2.41567e+07
          2.41911e+07 2.4254e+07 2.45051e+07 2.51029e+07 2.55862e+07 2.57007e+07 2.58991e+07 2.64709e+07 2.7073e+07 2.21414e+07 2.21958e+07 2.33049e+07
          2.41271e+07 2.43187e+07 2.44524e+07 2.45358e+07 2.46147e+07 2.48898e+07 2.5478e+07 2.58716e+07 2.59612e+07 2.62263e+07 2.6846e+07 2.76395e+07
          2.26784e+07 2.27406e+07 2.36613e+07 2.4423e+07 2.46324e+07 2.47105e+07 2.49265e+07 2.51504e+07 2.54462e+07 2.59358e+07 2.61763e+07 2.62159e+07
          2.64857e+07 2.72741e+07 2.82064e+07 2.33323e+07 2.34339e+07 2.39857e+07 2.45901e+07 2.49882e+07 2.5162e+07 2.55287e+07 2.59102e+07 2.61108e+07
          2.64062e+07 2.65516e+07 2.65856e+07 2.68694e+07 2.77069e+07 2.85427e+07 2.42266e+07 2.43598e+07 2.46102e+07 2.50327e+07 2.53716e+07 2.55101e+07
          2.60231e+07 2.6558e+07 2.67136e+07 2.68536e+07 2.69388e+07 2.69834e+07 2.72187e+07 2.80646e+07 2.879e+07 2.49497e+07 2.50265e+07 2.51562e+07
          2.54753e+07 2.57496e+07 2.5845e+07 2.65017e+07 2.71807e+07 2.72334e+07 2.72991e+07 2.73417e+07 2.73874e+07 2.75909e+07 2.84244e+07 2.90642e+07
          2.54791e+07 2.55363e+07 2.55965e+07 2.59081e+07 2.61749e+07 2.6415e+07 2.71578e+07 2.78296e+07 2.79161e+07 2.78066e+07 2.78232e+07 2.78826e+07
          2.85588e+07 2.96469e+07 2.98792e+07 2.58747e+07 2.59552e+07 2.60555e+07 2.64244e+07 2.72854e+07 2.74109e+07 2.80037e+07 2.84754e+07 2.85334e+07
          2.85131e+07 2.83571e+07 2.90019e+07 2.99614e+07 3.06215e+07 3.03335e+07 2.63218e+07 2.63406e+07 2.66763e+07 2.72034e+07 2.82473e+07 2.83393e+07
          2.8722e+07 2.90156e+07 2.90665e+07 2.91377e+07 2.92631e+07 3.01658e+07 3.08891e+07 3.10774e+07 3.08806e+07 2.71633e+07 2.71891e+07 2.74485e+07
          2.84992e+07 2.88467e+07 2.89107e+07 2.91829e+07 2.93633e+07 2.94145e+07 2.94937e+07 2.98128e+07 3.06463e+07 3.12682e+07 3.16056e+07 3.13956e+07
          2.80056e+07 2.80424e+07 2.81683e+07 2.91333e+07 2.93146e+07 2.93542e+07 2.94871e+07 2.96059e+07 2.96553e+07 2.97211e+07 3.01608e+07 3.11465e+07
          3.18078e+07 3.21345e+07 3.18658e+07 2.86842e+07 2.87426e+07 2.91331e+07 2.94709e+07 2.96169e+07 2.96618e+07 2.97632e+07 2.98499e+07 2.99015e+07
          2.99611e+07 3.05044e+07 3.1545e+07 3.22191e+07 3.24842e+07 3.23346e+07 2.90208e+07 2.90886e+07 2.9329e+07 2.96913e+07 2.98769e+07 2.99252e+07
          3.00126e+07 3.00874e+07 3.01345e+07 3.01916e+07 3.07892e+07 3.19388e+07 3.26287e+07 3.28237e+07 3.2989e+07 2.9286e+07 2.93455e+07 2.95634e+07
          2.99213e+07 3.01021e+07 3.01509e+07 3.02349e+07 3.0305e+07 3.03525e+07 3.04167e+07 3.10081e+07 3.22746e+07 3.30326e+07 3.31828e+07 3.36111e+07
          2.9505e+07 2.95737e+07 2.97454e+07 3.0075e+07 3.03007e+07 3.03551e+07 3.04451e+07 3.0519e+07 3.05847e+07 3.06679e+07 3.15058e+07 3.28597e+07
          3.34063e+07 3.35656e+07 3.40939e+07 2.97136e+07 2.97853e+07 2.99373e+07 3.02586e+07 3.04886e+07 3.05489e+07 3.06538e+07 3.07386e+07 3.08257e+07
          3.09228e+07 3.20548e+07 3.34602e+07 3.3794e+07 3.39908e+07 3.45641e+07 2.99016e+07 2.99663e+07 3.01513e+07 3.049e+07 3.06764e+07 3.07468e+07
          3.0871e+07 3.09698e+07 3.10839e+07 3.12066e+07 3.25176e+07 3.3953e+07 3.42374e+07 3.44594e+07 3.48979e+07 3.00712e+07 3.01324e+07 3.02934e+07
          3.06326e+07 3.08732e+07 3.09455e+07 3.10859e+07 3.12016e+07 3.13421e+07 3.15094e+07 3.30306e+07 3.43798e+07 3.4696e+07 3.48955e+07 3.51917e+07
        </DataArray>
        <DataArray type="Float32" Name="pressure[1]" NumberOfComponents="1" format="ascii">
          2.10048e+07 2.10194e+07 2.16099e+07 2.22262e+07 2.25986e+07 2.30265e+07 2.31601e+07 2.32099e+07 2.327e+07 2.3337e+07 2.35288e+07 2.3846e+07
          2.40819e+07 2.47151e+07 2.54686e+07 2.10488e+07 2.10634e+07 2.17164e+07 2.23648e+07 2.27744e+07 2.32046e+07 2.33027e+07 2.33415e+07 2.34035e+07
          2.34795e+07 2.37465e+07 2.40673e+07 2.42582e+07 2.49088e+07 2.56353e+07 2.10932e+07 2.11076e+07 2.17899e+07 2.251e+07 2.28729e+07 2.32755e+07
          2.33934e+07 2.34508e+07 2.35316e+07 2.36376e+07 2.39984e+07 2.43631e+07 2.45516e+07 2.51537e+07 2.58472e+07 2.11832e+07 2.12282e+07 2.16651e+07
          2.26444e+07 2.29979e+07 2.33839e+07 2.34901e+07 2.35429e+07 2.36696e+07 2.38374e+07 2.43196e+07 2.47354e+07 2.49221e+07 2.54457e+07 2.61117e+07
          2.13158e+07 2.13399e+07 1.97977e+07 2.27457e+07 2.31828e+07 2.35901e+07 2.36604e+07 2.36971e+07 2.3904e+07 2.42219e+07 2.47042e+07 2.50919e+07
          2.52852e+07 2.5777e+07 2.63719e+07 2.1516e+07 2.15591e+07 2.21568e+07 2.32606e+07 2.35806e+07 2.38519e+07 2.38927e+07 2.3923e+07 2.42046e+07
          2.46671e+07 2.51592e+07 2.54147e+07 2.56231e+07 2.61098e+07 2.66643e+07 2.17727e+07 2.18231e+07 2.28419e+07 2.37574e+07 2.39696e+07 2.41567e+07
          2.41911e+07 2.4254e+07 2.45051e+07 2.51029e+07 2.55862e+07 2.57007e+07 2.58991e+07 2.64709e+07 2.7073e+07 2.21414e+07 2.21958e+07 2.33049e+07
          2.41271e+07 2.43187e+07 2.44524e+07 2.45358e+07 2.46147e+07 2.48898e+07 2.5478e+07 2.58716e+07 2.59612e+07 2.62263e+07 2.6846e+07 2.76395e+07
          2.26784e+07 2.27406e+07 2.36613e+07 2.4423e+07 2.46324e+07 2.47105e+07 2.49265e+07 2.51504e+07 2.54462e+07 2.59358e+07 2.61763e+07 2.62159e+07
          2.64857e+07 2.72741e+07 2.82064e+07 2.33323e+07 2.34339e+07 2.39857e+07 2.45901e+07 2.49882e+07 2.5162e+07 2.55287e+07 2.59102e+07 2.61108e+07
          2.64062e+07 2.65516e+07 2.65856e+07 2.68694e+07 2.77069e+07 2.85427e+07 2.42266e+07 2.43598e+07 2.46102e+07 2.50327e+07 2.53716e+07 2.55101e+07
          2.60231e+07 2.6558e+07 2.67136e+07 2.68536e+07 2.69388e+07 2.69834e+07 2.72187e+07 2.80646e+07 2.879e+07 2.49497e+07 2.50265e+07 2.51562e+07
          2.54753e+07 2.57496e+07 2.5845e+07 2.65017e+07 2.71807e+07 2.72334e+07 2.72991e+07 2.73417e+07 2.73874e+07 2.75909e+07 2.84244e+07 2.90642e+07
          2.54791e+07 2.55363e+07 2.55965e+07 2.59081e+07 2.61749e+07 2.6415e+07 2.71578e+07 2.78296e+07 2.79161e+07 2.78066e+07 2.78232e+07 2.78826e+07
          2.85588e+07 2.96469e+07 2.98792e+07 2.58747e+07 2.59552e+07 2.60555e+07 2.64244e+07 2.72854e+07 2.74109e+07 2.80037e+07 2.84754e+07 2.85334e+07
          2.85131e+07 2.83571e+07 2.90019e+07 2.99614e+07 3.06215e+07 3.03335e+07 2.63218e+07 2.63406e+07 2.66763e+07 2.72034e+07 2.82473e+07 2.83393e+07
          2.8722e+07 2.90156e+07 2.90665e+07 2.91377e+07 2.92631e+07 3.01658e+07 3.08891e+07 3.10774e+07 3.08806e+07 2.71633e+07 2.71891e+07 2.74485e+07
          2.84992e+07 2.88467e+07 2.89107e+07 2.91829e+07 2.93633e+07 2.94145e+07 2.94937e+07 2.98128e+07 3.06463e+07 3.12682e+07 3.16056e+07 3.13956e+07
          2.80056e+07 2.80424e+07 2.81683e+07 2.91333e+07 2.93146e+07 2.93542e+07 2.94871e+07 2.96059e+07 2.96553e+07 2.97211e+07 3.01608e+07 3.11465e+07
          3.18078e+07 3.21345e+07 3.18658e+07 2.86842e+07 2.87426e+07 2.91331e+07 2.94709e+07 2.96169e+07 2.96618e+07 2.97632e+07 2.98499e+07 2.99015e+07
          2.99611e+07 3.05044e+07 3.1545e+07 3.22191e+07 3.24842e+07 3.23346e+07 2.90208e+07 2.90886e+07 2.9329e+07 2.96913e+07 2.98769e+07 2.99252e+07
          3.00126e+07 3.00874e+07 3.01345e+07 3.01916e+07 3.07892e+07 3.19388e+07 3.26287e+07 3.28237e+07 3.2989e+07 2.9286e+07 2.93455e+07 2.95634e+07
          2.99213e+07 3.01021e+07 3.01509e+07 3.02349e+07 3.0305e+07 3.03525e+07 3.04167e+07 3.10081e+07 3.22746e+07 3.30326e+07 3.31828e+07 3.36111e+07
          2.9505e+07 2.95737e+07 2.97454e+07 3.0075e+07 3.03007e+07 3.03551e+07 3.04451e+07 3.0519e+07 3.05847e+07 3.06679e+07 3.15058e+07 3.28597e+07
          3.34063e+07 3.35656e+07 3.40939e+07 2.97136e+07 2.97853e+07 2.99373e+07 3.02586e+07 3.04886e+07 3.05489e+07 3.06538e+07 3.07386e+07 3.08257e+07
          3.09228e+07 3.20548e+07 3.34602e+07 3.3794e+07 3.39908e+07 3.45641e+07 2.99016e+07 2.99663e+07 3.01513e+07 3.049e+07 3.06764e+07 3.07468e+07
          3.0871e+07 3.09698e+07 3.10839e+07 3.12066e+07 3.25176e+07 3.3953e+07 3.42374e+07 3.44594e+07 3.48979e+07 3.00712e+07 3.01324e+07 3.02934e+07
          3.06326e+07 3.08732e+07 3.09455e+07 3.10859e+07 3.12016e+07 3.13421e+07 3.15094e+07 3.30306e+07 3.43798e+07 3.4696e+07 3.48955e+07 3.51917e+07
        </DataArray>
        <DataArray type="Float32" Name="pressure[2]" NumberOfComponents="1" format="ascii">
          2.10048e+07 2.10194e+07 2.16099e+07 2.22262e+07 2.25986e+07 2.30265e+07 2.31601e+07 2.32099e+07 2.327e+07 2.3337e+07 2.35288e+07 2.3846e+07
          2.40819e+07 2.47151e+07 2.54686e+07 2.10488e+07 2.10634e+07 2.17164e+07 2.23648e+07 2.27744e+07 2.32046e+07 2.33027e+07 2.33415e+07 2.34035e+07
          2.34795e+07 2.37465e+07 2.40673e+07 2.42582e+07 2.49088e+07 2.56353e+07 2.10932e+07 2.11076e+07 2.17899e+07 2.251e+07 2.28729e+07 2.32755e+07
          2.33934e+07 2.34508e+07 2.35316e+07 2.36376e+07 2.39984e+07 2.43631e+07 2.45516e+07 2.51537e+07 2.58472e+07 2.11832e+07 2.12282e+07 2.16651e+07
          2.26444e+07 2.29979e+07 2.33839e+07 2.34901e+07 2.35429e+07 2.36696e+07 2.38374e+07 2.43196e+07 2.47354e+07 2.49221e+07 2.54457e+07 2.61117e+07
          2.13158e+07 2.13399e+07 1.97977e+07 2.27457e+07 2.31828e+07 2.35901e+07 2.36604e+07 2.36971e+07 2.3904e+07 2.42219e+07 2.47042e+07 2.50919e+07
          2.52852e+07 2.5777e+07 2.63719e+07 2.1516e+07 2.15591e+07 2.21568e+07 2.32606e+07 2.35806e+07 2.38519e+07 2.38927e+07 2.3923e+07 2.42046e+07
          2.46671e+07 2.51592e+07 2.54147e+07 2.56231e+07 2.61098e+07 2.66643e+07 2.17727e+07 2.18231e+07 2.28419e+07 2.37574e+07 2.39696e+07 2.41567e+07
          2.41911e+07 2.4254e+07 2.45051e+07 2.51029e+07 2.55862e+07 2.57007e+07 2.58991e+07 2.64709e+07 2.7073e+07 2.21414e+07 2.21958e+07 2.33049e+07
          2.41271e+07 2.43187e+07 2.44524e+07 2.45358e+07 2.46147e+07 2.48898e+07 2.5478e+07 2.58716e+07 2.59612e+07 2.62263e+07 2.6846e+07 2.76395e+07
          2.26784e+07 2.27406e+07 2.36613e+07 2.4423e+07 2.46324e+07 2.47105e+07 2.49265e+07 2.51504e+07 2.54462e+07 2.59358e+07 2.61763e+07 2.62159e+07
          2.64857e+07 2.72741e+07 2.82064e+07 2.33323e+07 2.34339e+07 2.39857e+07 2.45901e+07 2.49882e+07 2.5162e+07 2.55287e+07 2.59102e+07 2.61108e+07
          2.64062e+07 2.65516e+07 2.65856e+07 2.68694e+07 2.77069e+07 2.85427e+07 2.42266e+07 2.43598e+07 2.46102e+07 2.50327e+07 2.53716e+07 2.55101e+07
          2.60231e+07 2.6558e+07 2.67136e+07 2.68536e+07 2.69388e+07 2.69834e+07 2.72187e+07 2.80646e+07 2.879e+07 2.49497e+07 2.50265e+07 2.51562e+07
          2.54753e+07 2.57496e+07 2.5845e+07 2.65017e+07 2.71807e+07 2.72334e+07 2.72991e+07 2.73417e+07 2.73874e+07 2.75909e+07 2.84244e+07 2.90642e+07
          2.54791e+07 2.55363e+07 2.55965e+07 2.59081e+07 2.61749e+07 2.6415e+07 2.71578e+07 2.78296e+07 2.79161e+07 2.78066e+07 2.78232e+07 2.78826e+07
          2.85588e+07 2.96469e+07 2.98792e+07 2.58747e+07 2.59552e+07 2.60555e+07 2.64244e+07 2.72854e+07 2.74109e+07 2.80037e+07 2.84754e+07 2.85334e+07
          2.85131e+07 2.83571e+07 2.90019e+07 2.99614e+07 3.06215e+07 3.03335e+07 2.63218e+07 2.63406e+07 2.66763e+07 2.72034e+07 2.82473e+07 2.83393e+07
          2.8722e+07 2.90156e+07 2.90665e+07 2.91377e+07 2.92631e+07 3.01658e+07 3.08891e+07 3.10774e+07 3.08806e+07 2.71633e+07 2.71891e+07 2.74485e+07
          2.84992e+07 2.88467e+07 2.89107e+07 2.91829e+07 2.93633e+07 2.94145e+07 2.94937e+07 2.98128e+07 3.06463e+07 3.12682e+07 3.16056e+07 3.13956e+07
          2.80056e+07 2.80424e+07 2.81683e+07 2.91333e+07 2.93146e+07 2.93542e+07 2.94871e+07 2.96059e+07 2.96553e+07 2.97211e+07 3.01608e+07 3.11465e+07
          3.18078e+07 3.21345e+07 3.18658e+07 2.86842e+07 2.87426e+07 2.91331e+07 2.94709e+07 2.96169e+07 2.96618e+07 2.97632e+07 2.98499e+07 2.99015e+07
          2.99611e+07 3.05044e+07 3.1545e+07 3.22191e+07 3.24842e+07 3.23346e+07 2.90208e+07 2.90886e+07 2.9329e+07 2.96913e+07 2.98769e+07 2.99252e+07
          3.00126e+07 3.00874e+07 3.01345e+07 3.01916e+07 3.07892e+07 3.19388e+07 3.26287e+07 3.28237e+07 3.2989e+07 2.9286e+07 2.93455e+07 2.95634e+07
          2.99213e+07 3.01021e+07 3.01509e+07 3.02349e+07 3.0305e+07 3.03525e+07 3.04167e+07 3.10081e+07 3.22746e+07 3.30326e+07 3.31828e+07 3.36111e+07
          2.9505e+07 2.95737e+07 2.97454e+07 3.0075e+07 3.03007e+07 3.03551e+07 3.04451e+07 3.0519e+07 3.05847e+07 3.06679e+07 3.15058e+07 3.28597e+07
          3.34063e+07 3.35656e+07 3.40939e+07 2.97136e+07 2.97853e+07 2.99373e+07 3.02586e+07 3.04886e+07 3.05489e+07 3.06538e+07 3.07386e+07 3.08257e+07
          3.09228e+07 3.20548e+07 3.34602e+07 3.3794e+07 3.39908e+07 3.45641e+07 2.99016e+07 2.99663e+07 3.01513e+07 3.049e+07 3.06764e+07 3.07468e+07
          3.0871e+07 3.09698e+07 3.10839e+07 3.12066e+07 3.25176e+07 3.3953e+07 3.42374e+07 3.44594e+07 3.48979e+07 3.00712e+07 3.01324e+07 3.02934e+07
          3.06326e+07 3.08732e+07 3.09455e+07 3.10859e+07 3.12016e+07 3.13421e+07 3.15094e+07 3.30306e+07 3.43798e+07 3.4696e+07 3.48955e+07 3.51917e+07
        </DataArray>
        <DataArray type="Float32" Name="velocity[0]" NumberOfComponents="1" format="ascii">
          -2.83513e-11 3.39195e-08 2.11853e-10 -2.36868e-09 -3.35882e-10 -1.33329e-09 -2.35455e-10 1.38177e-09 2.21769e-09 -2.29081e-10 -1.86061e-09 -2.59397e-09
          -1.73788e-09 -5.76918e-10 -2.68466e-09 -1.74721e-09 9.82343e-08 5.17585e-10 -1.33279e-08 3.29747e-11 1.83836e-09 8.61695e-09 5.90058e-09 5.00387e-09
          -2.04324e-09 -3.8846e-09 -1.1093e-08 -6.80351e-09 -1.77883e-09 -7.12536e-09 -1.43187e-08 1.52665e-07 1.16784e-09 8.01003e-09 6.26636e-10 5.39375e-09
          1.57468e-08 1.12086e-08 3.10893e-09 -5.52427e-09 -4.6332e-09 -2.78332e-08 -9.78517e-09 -3.8086e-09 -1.06913e-08 -1.83336e-08 1.73476e-07 6.85247e-09
          8.54926e-08 -1.06628e-09 -5.71474e-09 -1.80973e-10 3.78888e-09 -3.34816e-09 -1.26699e-08 -5.94925e-09 -4.79523e-08 -6.95818e-09 -5.5758e-09 -1.46106e-08
          -8.90055e-08 -3.52048e-08 -2.63545e-10 -1.15508e-07 -1.37651e-08 -4.8099e-08 -4.90873e-08 -3.52332e-08 -6.5263e-09 -1.31938e-08 -8.40413e-09 -8.16261e-08
          -3.51805e-09 -5.11356e-09 -1.80357e-08 -1.75435e-07 -2.18532e-07 -7.62534e-09 -2.53433e-07 -3.20643e-08 -1.66234e-07 -9.58493e-08 -7.01592e-08 -4.96314e-09
          -6.00217e-09 -1.29186e-08 -1.19395e-07 -2.07408e-09 -4.07552e-09 -2.03503e-08 -1.7643e-07 -1.8984e-07 -2.37423e-09 -8.52136e-08 -3.27133e-08 -3.15678e-07
          -6.77985e-08 -1.0046e-07 -4.7972e-09 -2.85702e-09 -1.61407e-08 -1.46216e-07 -1.82734e-09 -4.03034e-09 -2.19631e-08 -1.60755e-07 -1.74425e-07 -2.06605e-09
          -1.67336e-08 -2.13869e-08 -3.66159e-07 -1.98228e-08 -1.73841e-07 -5.67121e-09 -2.56388e-09 -1.86221e-08 -1.66004e-07 -1.53739e-09 -4.1675e-09 -2.37874e-08
          -1.45419e-07 -1.57595e-07 -2.46734e-09 -3.11417e-09 -1.88195e-08 -3.24216e-07 -9.27889e-09 -2.80176e-07 -5.67145e-09 -3.1255e-09 -3.19721e-08 -1.62643e-07
          -1.48527e-09 -3.77511e-09 -2.61938e-08 -1.19053e-07 -1.44505e-07 -1.00277e-08 -1.57685e-09 -2.36974e-08 -2.78338e-07 -4.46681e-09 -3.80153e-07 -5.76961e-09
          -3.6201e-09 -5.47861e-08 -1.38929e-07 -2.35561e-09 -3.16101e-09 -2.86038e-08 -8.84417e-08 -1.37238e-07 -2.08957e-08 -2.12676e-09 -2.97982e-08 -2.52861e-07
          -1.60375e-09 -4.36781e-07 -1.10703e-08 -5.08598e-09 -7.04624e-08 -1.12379e-07 -5.41351e-09 -3.50153e-09 -3.08041e-08 -6.95866e-08 -1.30902e-07 -2.67103e-08
          -1.44592e-09 -3.63723e-08 -2.39391e-07 -1.30577e-09 -4.56037e-07 -2.04112e-08 -1.00928e-08 -7.63597e-08 -7.95864e-08 -1.17355e-08 -6.44203e-09 -3.32193e-08
          -5.91209e-08 -1.30131e-07 -2.37983e-08 -2.48119e-09 -3.15437e-08 -2.2791e-07 -1.83145e-09 -4.73038e-07 -4.39652e-08 -1.14059e-08 -7.29468e-08 -3.51516e-08
          -2.61049e-08 -1.38677e-08 -3.4679e-08 -4.04218e-08 -1.49329e-07 -1.56445e-08 -6.3556e-09 -2.42288e-08 -2.187e-07 -1.90958e-09 -4.7955e-07 -8.1389e-08
          -1.63854e-08 -4.57085e-08 -7.88731e-09 -3.50642e-08 -2.72141e-08 -3.32977e-08 -4.19785e-08 -1.28224e-07 -1.23156e-08 -7.78004e-09 -2.96871e-08 -2.21755e-07
          -1.40972e-09 -4.59956e-07 -1.03799e-07 -2.68908e-08 -1.99825e-08 -4.58375e-09 -3.29987e-08 -4.32586e-08 -2.96951e-08 -6.22285e-08 -7.63255e-08 -1.25755e-08
          -5.68098e-09 -3.74578e-08 -2.26778e-07 -1.79074e-09 -3.9867e-07 -1.09806e-07 -3.3946e-08 -1.04307e-08 -5.66099e-09 -3.73628e-08 -6.4357e-08 -2.48828e-08
          -6.70551e-08 -5.44091e-08 -9.50796e-09 -6.00628e-09 -5.30767e-08 -2.01108e-07 -3.37226e-09 -3.17888e-07 -1.11318e-07 -5.17487e-08 -3.90827e-09 -5.3605e-09
          -3.09127e-08 -9.60693e-08 -1.97164e-08 -6.73417e-08 -4.25437e-08 -3.45916e-09 -4.31631e-09 -7.89378e-08 -1.45309e-07 -5.07356e-09 -2.44324e-07 -1.21207e-07
          -7.94867e-08 -2.70942e-09 -3.59224e-09 -2.01237e-08 -1.25904e-07 -1.53758e-08 -6.11422e-08 -3.03089e-08 -1.7115e-09 -1.515e-09 -9.72201e-08 -9.21751e-08
          -5.33816e-09 -1.75956e-07 -1.22086e-07 -1.26247e-07 -1.56606e-09 -2.95861e-09 -2.63931e-08 -1.44164e-07 -1.34624e-08 -5.08656e-08 -2.04102e-08 -1.64045e-09
          -6.76741e-10 -1.03031e-07 -5.22293e-08 -4.44915e-09 -1.29176e-07 -7.93796e-08 -2.20534e-07 -2.769e-09 -4.22903e-09 -3.9245e-08 -1.53111e-07 -1.45007e-08
          -3.88964e-08 -1.37308e-08 -1.46743e-09 -1.61544e-10 -9.54946e-08 -2.72284e-08 -3.81189e-09 -1.0185e-07 -3.33575e-08 -3.07056e-07 -4.36117e-09 -7.80608e-09
          -4.76993e-08 -1.60216e-07 -1.66772e-08 -2.44572e-08 -6.99614e-09 -2.32078e-09 -8.86615e-10 -7.0504e-08 -1.85089e-08 -3.73862e-09 -9.67367e-08 -1.81643e-08
          -3.25136e-07 -3.97494e-09 -1.49695e-08 -5.22413e-08 -1.67432e-07 -2.07137e-08 -1.14095e-08 -2.7929e-09 -1.04364e-09 -5.84328e-10 -3.52164e-08 -1.38412e-08
          -3.0793e-09 -1.02619e-07 -1.46799e-08 -2.80393e-07 -5.51386e-09 -2.57969e-08 -6.8702e-08 -1.74641e-07 -2.70683e-08 -3.02117e-09 -6.28217e-10 2.34158e-10
          9.00091e-11 -8.33008e-09 -5.28829e-09 -1.12951e-09 -5.24098e-08 -6.84484e-09 -1.21277e-07 -3.63878e-09 -1.56513e-08 -4.10765e-08 -8.98091e-08 -1.52037e-08
        </DataArray>
        <DataArray type="Float32" Name="velocity[1]" NumberOfComponents="1" format="ascii">
          4.40612e-27 5.36922e-24 7.98544e-26 -3.68121e-25 5.22001e-26 0 3.65924e-26 -1.78464e-25 4.99329e-26 5.586e-24 -3.6242e-24 3.87064e-26
          2.39453e-24 -9.50068e-25 4.17253e-25 2.62725e-25 4.64214e-24 7.44505e-26 -1.33507e-24 -1.87219e-25 7.23632e-24 1.22319e-24 3.40764e-25 -6.84536e-24
          -1.41945e-25 0 -3.58661e-26 3.99611e-26 1.1953e-28 2.72909e-25 1.69104e-24 -7.06386e-24 -1.69121e-24 4.65124e-24 -1.99672e-25 0
          2.31257e-25 -3.83025e-25 -3.82845e-25 0 6.91305e-24 -1.07722e-23 0 1.12506e-24 -2.81241e-25 -2.09802e-24 1.28334e-23 -1.52411e-24
          -8.19284e-24 3.51553e-25 9.72435e-24 -2.10671e-23 2.47287e-23 -3.90289e-24 1.11613e-24 3.40995e-24 -4.55462e-24 3.13677e-24 -1.31112e-24 9.83415e-25
          -1.01006e-25 -6.38605e-23 5.97117e-24 1.079e-23 -4.56344e-25 -5.31627e-24 1.43914e-25 -1.13249e-25 -5.5434e-26 -6.43134e-24 4.15551e-24 -7.58148e-24
          -5.43548e-29 1.28154e-25 -1.50373e-24 -1.34679e-25 6.87809e-24 -6.44496e-25 7.80479e-24 2.15761e-25 -1.38486e-23 0 -1.18305e-25 -6.38751e-26
          3.47085e-25 -4.34534e-25 5.47233e-24 -1.46113e-24 8.64683e-25 1.50381e-24 -1.06592e-24 1.24718e-24 0 9.31281e-24 -8.62443e-25 -2.66324e-23
          -1.27015e-25 -1.11678e-25 -3.4048e-24 4.9776e-28 -1.05267e-28 -4.38471e-28 3.69848e-26 7.35601e-29 -1.65894e-24 -1.7085e-25 1.28572e-23 1.37064e-24
          3.25101e-24 -1.14962e-25 3.17607e-23 -7.68368e-26 -7.14825e-26 -9.21256e-26 -6.03466e-26 -3.74985e-24 -1.24528e-23 3.53783e-30 -3.71029e-25 1.94246e-24
          -1.34107e-24 -9.27996e-24 -9.61755e-26 -1.72537e-24 4.28837e-25 6.69006e-24 0 0 -8.13e-25 4.17353e-29 1.08497e-24 3.01663e-24
          4.26125e-29 5.63932e-26 1.93823e-28 -1.07128e-23 1.04304e-24 1.34219e-24 -2.94709e-25 -1.69767e-24 4.58053e-24 -8.38793e-24 6.56343e-24 7.50244e-25
          -4.94499e-26 -6.79754e-25 3.18298e-24 -8.43554e-25 0 -2.12836e-24 4.22239e-24 5.64185e-26 5.6701e-25 -2.16214e-25 2.32609e-24 -4.93495e-28
          -4.97859e-24 4.48513e-24 7.6242e-25 1.7794e-25 2.84154e-25 8.14166e-24 1.82288e-24 -3.06093e-25 1.53047e-25 -4.8592e-24 1.30451e-24 -3.37533e-25
          1.38664e-26 -9.57809e-25 -1.82148e-23 3.06864e-26 7.56098e-25 -1.51471e-24 -5.99636e-25 -1.51504e-26 2.87859e-24 -2.02229e-24 1.12708e-24 -2.22052e-25
          4.32831e-24 9.84891e-24 0 -1.66779e-25 -1.23537e-24 1.01298e-24 5.14685e-26 1.89254e-24 -2.97201e-24 2.45205e-28 -5.26832e-24 -8.52332e-25
          1.6641e-24 -6.82844e-25 -1.68483e-28 -2.37573e-24 2.23173e-28 8.89895e-25 -8.71453e-25 1.39579e-27 1.61297e-23 -3.80317e-26 -8.7514e-25 3.62786e-24
          1.91155e-24 5.26838e-24 2.52746e-24 -4.70445e-24 7.54956e-29 -2.47769e-24 -1.95366e-24 -7.097e-24 6.99489e-28 7.11543e-25 7.48959e-25 4.21837e-28
          -3.88177e-26 -6.04756e-24 1.72498e-24 0 0 3.73449e-25 3.85732e-24 -5.27118e-25 4.61514e-24 0 2.33199e-24 0
          -3.85324e-25 4.59842e-25 1.944e-28 9.80326e-26 -7.35658e-24 1.7216e-28 1.59646e-28 -3.58417e-29 4.299e-24 -2.692e-28 -1.25619e-24 -2.13708e-24
          -1.92772e-28 1.07448e-24 6.72354e-28 -1.63692e-25 1.96914e-24 -1.03679e-23 0 -1.08649e-23 0 -1.75928e-29 3.13091e-24 -3.87002e-24
          -1.72966e-24 2.42455e-28 1.33436e-24 0 3.69088e-24 0 5.48489e-25 1.96739e-24 4.8914e-24 1.15949e-25 -6.23486e-24 -5.44593e-24
          -2.17757e-24 1.84212e-25 5.23059e-26 1.58762e-29 -1.77763e-24 -1.05522e-24 4.35745e-24 -2.18466e-24 2.40794e-24 -1.99315e-24 7.91285e-25 8.89239e-24
          -7.4791e-26 -4.39028e-24 1.02159e-23 5.56009e-24 -3.34703e-24 7.23871e-26 9.21561e-25 -4.3244e-28 1.03698e-24 4.90713e-28 -3.9499e-24 8.57121e-25
          -1.81396e-24 2.24111e-25 -2.74964e-24 -1.26055e-25 -5.75969e-24 -5.18042e-24 9.56513e-24 2.72662e-25 3.57422e-24 1.07569e-24 -3.59571e-25 -8.57376e-25
          -1.05037e-24 6.322e-25 0 -4.00264e-26 -1.28359e-24 4.56429e-24 -8.02312e-24 8.02473e-24 -5.77935e-24 1.02785e-27 0 0
          2.38289e-25 -6.83376e-28 1.37524e-24 -1.19365e-24 -1.25698e-24 1.15804e-24 -1.946e-24 -8.43193e-25 -1.3285e-24 2.35592e-26 5.72214e-25 -3.77926e-24
          1.35719e-23 -2.57057e-25 -6.49421e-24 4.67236e-25 9.38247e-25 -4.96743e-29 -8.33563e-25 -6.59182e-28 -6.59799e-28 1.17118e-25 -2.88443e-24 5.08084e-25
          -1.27481e-25 1.03118e-23 -4.27717e-24 0 -2.74101e-25 -8.55302e-25 6.62126e-24 -7.74342e-25 0 -4.7005e-25 -6.42151e-28 -3.83298e-25
          6.49168e-25 -1.29396e-24 -2.17753e-24 -3.52519e-25 -2.72001e-24 1.06377e-24 -2.94847e-23 0 2.94519e-23 -2.15558e-23 1.77764e-23 4.47181e-25
        </DataArray>
        <DataArray type="Float32" Name="velocity[2]" NumberOfComponents="1" format="ascii">
          -5.31055e-12 4.31598e-09 -3.26616e-09 -3.54175e-09 -2.98116e-09 -3.02434e-09 -2.72964e-09 -2.4578e-09 -2.45481e-09 -2.97441e-09 -3.0959e-09 -2.91406e-09
          -2.45441e-09 -2.00149e-09 -1.36823e-09 -1.98069e-10 1.60485e-08 -2.6423e-09 -4.58541e-09 -1.77543e-09 -1.65837e-09 -8.84971e-10 -1.67284e-09 -1.92312e-09
          -3.0989e-09 -3.31019e-09 -4.18138e-09 -2.81787e-09 -1.58857e-09 -1.84174e-09 -1.79762e-09 2.71757e-08 -7.57461e-10 -1.02471e-09 -3.73697e-09 -2.78456e-09
          -8.25554e-10 -1.61112e-09 -2.91996e-09 -4.17397e-09 -3.85871e-09 -7.22394e-09 -3.38774e-09 -2.11234e-09 -2.4885e-09 -3.67444e-09 2.98568e-08 2.3294e-10
          1.13613e-08 -6.09695e-09 -6.27819e-09 -4.40801e-09 -3.05275e-09 -3.77745e-09 -4.9182e-09 -3.43343e-09 -1.02124e-08 -2.58845e-09 -2.44957e-09 -3.27889e-09
          -1.04821e-08 1.82616e-10 -1.02064e-09 -2.81434e-08 -1.30029e-08 -1.68359e-08 -1.45037e-08 -1.03001e-08 -4.44764e-09 -5.799e-09 -4.99984e-09 -1.63313e-08
          -1.15854e-09 -1.64124e-09 -3.6188e-09 -3.02845e-08 -3.82874e-08 -2.5306e-09 -5.16689e-08 -1.7592e-08 -3.67097e-08 -1.98701e-08 -1.48285e-08 -3.17558e-09
          -3.45823e-09 -4.59035e-09 -2.23859e-08 -9.27895e-10 -1.34872e-09 -3.92126e-09 -3.15678e-08 -3.46447e-08 -1.82998e-09 -1.92451e-08 -1.31047e-08 -6.02415e-08
          -1.45184e-08 -2.06386e-08 -3.02315e-09 -2.64181e-09 -4.98383e-09 -2.70863e-08 -8.03195e-10 -1.14784e-09 -4.07742e-09 -2.87918e-08 -3.20104e-08 -1.93678e-09
          -4.98087e-09 -6.51906e-09 -6.80596e-08 -7.72145e-09 -3.37752e-08 -2.79588e-09 -2.21464e-09 -4.90086e-09 -3.03784e-08 -1.03186e-09 -1.53609e-09 -4.59774e-09
          -2.60694e-08 -2.8971e-08 -1.89104e-09 -2.05813e-09 -4.78651e-09 -5.97889e-08 -5.63871e-09 -5.19219e-08 -2.00303e-09 -1.56461e-09 -5.92753e-09 -2.88313e-08
          -9.69446e-10 -1.40178e-09 -5.01625e-09 -2.21856e-08 -2.80418e-08 -3.88488e-09 -1.75055e-09 -5.48526e-09 -5.10389e-08 -3.60291e-09 -6.87859e-08 -1.62018e-09
          -1.2051e-09 -9.48538e-09 -2.44337e-08 -1.16536e-09 -1.3234e-09 -5.44797e-09 -1.63675e-08 -2.58338e-08 -5.12896e-09 -1.57233e-09 -6.30054e-09 -4.58465e-08
          -1.95117e-09 -7.8316e-08 -2.56974e-09 -1.17422e-09 -1.23928e-08 -2.02727e-08 -1.98595e-09 -1.37262e-09 -5.76005e-09 -1.27414e-08 -2.42342e-08 -5.88355e-09
          -1.24285e-09 -7.2374e-09 -4.31024e-08 -1.34741e-09 -8.13969e-08 -4.18606e-09 -1.94652e-09 -1.33673e-08 -1.50414e-08 -4.04808e-09 -2.47958e-09 -6.33394e-09
          -1.06522e-08 -2.32299e-08 -4.74909e-09 -1.3772e-09 -6.87301e-09 -4.22262e-08 -2.65531e-09 -8.54114e-08 -8.27944e-09 -1.49279e-09 -1.27724e-08 -7.88478e-09
          -7.02619e-09 -3.30785e-09 -6.12147e-09 -8.14552e-09 -2.75755e-08 -3.48434e-09 -1.97372e-09 -4.95111e-09 -3.93287e-08 -1.24148e-09 -8.56065e-08 -1.44628e-08
          -1.6036e-09 -7.87137e-09 -2.7875e-09 -7.88041e-09 -5.23518e-09 -5.40063e-09 -6.27953e-09 -2.22094e-08 -3.63797e-09 -2.92961e-09 -6.60482e-09 -3.99469e-08
          -8.30255e-10 -8.20657e-08 -1.93886e-08 -5.46166e-09 -4.3548e-09 -1.88325e-09 -6.92815e-09 -7.46217e-09 -4.50575e-09 -1.07459e-08 -1.3755e-08 -3.22002e-09
          -1.99672e-09 -7.47937e-09 -4.07402e-08 -1.08533e-09 -7.23139e-08 -2.25261e-08 -8.87276e-09 -4.9379e-09 -4.39352e-09 -9.59156e-09 -1.18186e-08 -3.51324e-09
          -1.17295e-08 -9.75068e-09 -2.48949e-09 -2.13064e-09 -9.7032e-09 -3.6294e-08 -2.56469e-09 -5.8891e-08 -2.33808e-08 -1.23548e-08 -3.41146e-09 -3.80177e-09
          -9.14527e-09 -1.83097e-08 -2.62805e-09 -1.19503e-08 -7.90117e-09 -1.47142e-09 -1.97399e-09 -1.45609e-08 -2.69972e-08 -3.69937e-09 -4.69212e-08 -2.56739e-08
          -1.71411e-08 -3.07978e-09 -3.28308e-09 -6.18561e-09 -2.29092e-08 -2.11216e-09 -1.11173e-08 -6.38351e-09 -1.64486e-09 -1.55142e-09 -1.81594e-08 -1.80376e-08
          -3.77751e-09 -3.46295e-08 -2.64469e-08 -2.64338e-08 -3.1731e-09 -3.48133e-09 -7.24612e-09 -2.64799e-08 -2.33442e-09 -9.31518e-09 -4.42423e-09 -1.3142e-09
          -1.25242e-09 -1.93018e-08 -1.11308e-08 -3.54186e-09 -2.60403e-08 -1.97534e-08 -4.41816e-08 -3.20947e-09 -3.25163e-09 -8.86045e-09 -2.8123e-08 -2.94199e-09
          -7.30953e-09 -3.52635e-09 -1.51425e-09 -1.21787e-09 -1.8456e-08 -7.20072e-09 -3.41965e-09 -2.0948e-08 -9.86716e-09 -5.78919e-08 -3.52721e-09 -4.03424e-09
          -1.0856e-08 -2.97631e-08 -3.28096e-09 -4.82489e-09 -2.39171e-09 -1.68083e-09 -1.38512e-09 -1.45307e-08 -6.32036e-09 -3.7774e-09 -2.00737e-08 -6.27051e-09
          -6.08255e-08 -4.48377e-09 -6.1171e-09 -1.21693e-08 -3.19074e-08 -4.65775e-09 -2.36992e-09 -1.28562e-09 -1.1856e-09 -1.2745e-09 -8.40964e-09 -5.78291e-09
          -4.05978e-09 -2.15753e-08 -6.06962e-09 -5.44962e-08 -7.42653e-09 -1.05604e-08 -1.68985e-08 -3.38518e-08 -5.88619e-09 -7.34369e-10 -5.45666e-10 -4.05319e-10
          -4.06628e-10 -2.33165e-09 -2.48678e-09 -2.03072e-09 -1.2501e-08 -6.27497e-09 -3.17134e-08 -1.35948e-08 -1.18941e-08 -1.35404e-08 -1.88433e-08 -3.16048e-09
        </DataArray>
        <DataArray type="Float32" Name="z[0]" NumberOfComponents="1" format="ascii">
          0.150578 0.150579 0.15058 0.150582 0.150582 0.150583 0.150584 0.150585 0.150585 0.150586 0.150587 0.150588
          0.150589 0.150591 0.150596 0.150581 0.150582 0.150583 0.150585 0.150586 0.150587 0.150587 0.150588 0.150588
          0.150589 0.15059 0.150591 0.150593 0.150595 0.150599 0.150584 0.150585 0.150587 0.150588 0.150589 0.15059
          0.15059 0.150591 0.150592 0.150593 0.150593 0.150595 0.150596 0.150598 0.150602 0.150588 0.150589 0.15059
          0.150591 0.150592 0.150593 0.150594 0.150594 0.150595 0.150596 0.150597 0.150598 0.150599 0.150601 0.150605
          0.150591 0.150592 0.150593 0.150594 0.150595 0.150596 0.150597 0.1506 0.150598 0.150599 0.1506 0.150601
          0.150602 0.150604 0.150609 0.150594 0.150595 0.150596 0.150597 0.150598 0.150599 0.150602 0.232642 0.150601