<?xml version="1.0"?>
<VTKFile type="UnstructuredGrid" version="0.1" byte_order="LittleEndian">
  <UnstructuredGrid>
    <Piece NumberOfCells="360" NumberOfPoints="800">
      <CellData Scalars="pressure[0]">
        <DataArray type="Float32" Name="pressure[0]" NumberOfComponents="1" format="ascii">
          2.10392e+07 2.10537e+07 2.16671e+07 2.23054e+07 2.26801e+07 2.3103e+07 2.32349e+07 2.32839e+07 2.33433e+07 2.34092e+07 2.35941e+07 2.39005e+07
          2.41278e+07 2.47474e+07 2.54918e+07 2.10836e+07 2.10979e+07 2.17761e+07 2.24486e+07 2.28594e+07 2.32821e+07 2.33788e+07 2.3417e+07 2.34782e+07
          2.35525e+07 2.38095e+07 2.41201e+07 2.43045e+07 2.49425e+07 2.56581e+07 2.11304e+07 2.11496e+07 2.18527e+07 2.25955e+07 2.2962e+07 2.33579e+07
          2.34738e+07 2.35298e+07 2.36091e+07 2.37116e+07 2.40596e+07 2.44127e+07 2.45959e+07 2.51872e+07 2.58687e+07 2.12328e+07 2.12791e+07 2.17236e+07
          2.27306e+07 2.30921e+07 2.34741e+07 2.35789e+07 2.36299e+07 2.37521e+07 2.3912e+07 2.43776e+07 2.47854e+07 2.49669e+07 2.5478e+07 2.61307e+07
          2.13656e+07 2.13894e+07 1.9801e+07 2.28325e+07 2.32853e+07 2.36879e+07 2.37562e+07 2.37928e+07 2.39892e+07 2.42878e+07 2.47605e+07 2.51455e+07
          2.53312e+07 2.58068e+07 2.63883e+07 2.15671e+07 2.16102e+07 2.22261e+07 2.33616e+07 2.36895e+07 2.39545e+07 2.39942e+07 2.40249e+07 2.42877e+07
          2.47328e+07 2.52174e+07 2.54698e+07 2.567e+07 2.61378e+07 2.66771e+07 2.18261e+07 2.18767e+07 2.29373e+07 2.38561e+07 2.40696e+07 2.42528e+07
          2.42885e+07 2.43318e+07 2.4571e+07 2.51635e+07 2.56428e+07 2.57567e+07 2.59476e+07 2.64966e+07 2.70789e+07 2.21985e+07 2.22533e+07 2.33787e+07
          2.42165e+07 2.44109e+07 2.45416e+07 2.45798e+07 2.46566e+07 2.49358e+07 2.55304e+07 2.59279e+07 2.60178e+07 2.6273e+07 2.68686e+07 2.76339e+07
          2.27404e+07 2.28031e+07 2.3725e+07 2.44989e+07 2.47155e+07 2.48088e+07 2.49749e+07 2.51665e+07 2.54733e+07 2.59834e+07 2.62334e+07 2.62735e+07
          2.65351e+07 2.72933e+07 2.81885e+07 2.33981e+07 2.34999e+07 2.40267e+07 2.46075e+07 2.49672e+07 2.50431e+07 2.54405e+07 2.58711e+07 2.61033e+07
          2.64462e+07 2.66118e+07 2.66467e+07 2.69246e+07 2.77274e+07 2.85187e+07 2.4244e+07 2.43685e+07 2.46113e+07 2.49443e+07 2.52027e+07 2.52374e+07
          2.58377e+07 2.65068e+07 2.66939e+07 2.68877e+07 2.70043e+07 2.70516e+07 2.72931e+07 2.80959e+07 2.87624e+07 2.49661e+07 2.50387e+07 2.51553e+07
          2.53808e+07 2.55696e+07 2.5586e+07 2.62614e+07 2.7145e+07 2.72315e+07 2.73374e+07 2.74135e+07 2.74694e+07 2.77102e+07 2.84708e+07 2.9028e+07
          2.55064e+07 2.55577e+07 2.5607e+07 2.58612e+07 2.6054e+07 2.61915e+07 2.70078e+07 2.77445e+07 2.77979e+07 2.7859e+07 2.79007e+07 2.79874e+07
          2.82101e+07 2.92668e+07 2.98052e+07 2.59283e+07 2.5982e+07 2.60807e+07 2.64825e+07 2.68998e+07 2.71676e+07 2.78264e+07 2.8363e+07 2.84108e+07
          2.84206e+07 2.84022e+07 2.85837e+07 2.97312e+07 3.04654e+07 3.02545e+07 2.62646e+07 2.631e+07 2.66807e+07 2.72124e+07 2.80589e+07 2.81529e+07
          2.85702e+07 2.89084e+07 2.89594e+07 2.90337e+07 2.91728e+07 3.00297e+07 3.0771e+07 3.09606e+07 3.08007e+07 2.70996e+07 2.71322e+07 2.74909e+07
          2.80332e+07 2.86693e+07 2.87518e+07 2.90562e+07 2.92603e+07 2.93121e+07 2.93927e+07 2.97144e+07 3.05484e+07 3.11731e+07 3.15181e+07 3.13195e+07
          2.79373e+07 2.79738e+07 2.81098e+07 2.89961e+07 2.91877e+07 2.92274e+07 2.93722e+07 2.95026e+07 2.95525e+07 2.96188e+07 3.00643e+07 3.10629e+07
          3.17338e+07 3.20674e+07 3.1796e+07 2.86123e+07 2.86696e+07 2.90341e+07 2.93581e+07 2.95027e+07 2.95473e+07 2.96549e+07 2.97472e+07 2.97993e+07
          2.98593e+07 3.0412e+07 3.1471e+07 3.2157e+07 3.24258e+07 3.22724e+07 2.89424e+07 2.90093e+07 2.92399e+07 2.95891e+07 2.97698e+07 2.9818e+07
          2.99085e+07 2.99862e+07 3.00336e+07 3.0091e+07 3.07003e+07 3.18729e+07 3.25762e+07 3.27728e+07 3.2941e+07 2.92044e+07 2.92636e+07 2.94752e+07
          2.98225e+07 2.99988e+07 3.00476e+07 3.01334e+07 3.02052e+07 3.0253e+07 3.03178e+07 3.09214e+07 3.22151e+07 3.29888e+07 3.31396e+07 3.35769e+07
          2.94217e+07 2.94899e+07 2.96581e+07 2.99792e+07 3.01995e+07 3.0254e+07 3.03456e+07 3.04208e+07 3.04872e+07 3.05713e+07 3.14281e+07 3.28125e+07
          3.33703e+07 3.35307e+07 3.40702e+07 2.96291e+07 2.97002e+07 2.98497e+07 3.01639e+07 3.03888e+07 3.04494e+07 3.0556e+07 3.06422e+07 3.07305e+07
          3.08288e+07 3.19877e+07 3.34264e+07 3.37665e+07 3.39654e+07 3.45506e+07 2.98164e+07 2.98808e+07 3.00627e+07 3.03948e+07 3.05779e+07 3.06488e+07
          3.0775e+07 3.08755e+07 3.09914e+07 3.1116e+07 3.24593e+07 3.39298e+07 3.42199e+07 3.44447e+07 3.48903e+07 2.99858e+07 3.00468e+07 3.02056e+07
          3.05391e+07 3.07759e+07 3.08488e+07 3.09915e+07 3.11093e+07 3.12523e+07 3.14226e+07 3.29824e+07 3.43651e+07 3.46881e+07 3.489e+07 3.51885e+07
        </DataArray>
        <DataArray type="Float32" Name="pressure[1]" NumberOfComponents="1" format="ascii">
          2.10392e+07 2.10537e+07 2.16671e+07 2.23054e+07 2.26801e+07 2.3103e+07 2.32349e+07 2.32839e+07 2.33433e+07 2.34092e+07 2.35941e+07 2.39005e+07
          2.41278e+07 2.47474e+07 2.54918e+07 2.10836e+07 2.10979e+07 2.17761e+07 2.24486e+07 2.28594e+07 2.32821e+07 2.33788e+07 2.3417e+07 2.34782e+07
          2.35525e+07 2.38095e+07 2.41201e+07 2.43045e+07 2.49425e+07 2.56581e+07 2.11304e+07 2.11496e+07 2.18527e+07 2.25955e+07 2.2962e+07 2.33579e+07
          2.34738e+07 2.35298e+07 2.36091e+07 2.37116e+07 2.40596e+07 2.44127e+07 2.45959e+07 2.51872e+07 2.58687e+07 2.12328e+07 2.12791e+07 2.17236e+07
          2.27306e+07 2.30921e+07 2.34741e+07 2.35789e+07 2.36299e+07 2.37521e+07 2.3912e+07 2.43776e+07 2.47854e+07 2.49669e+07 2.5478e+07 2.61307e+07
          2.13656e+07 2.13894e+07 1.9801e+07 2.28325e+07 2.32853e+07 2.36879e+07 2.37562e+07 2.37928e+07 2.39892e+07 2.42878e+07 2.47605e+07 2.51455e+07
          2.53312e+07 2.58068e+07 2.63883e+07 2.15671e+07 2.16102e+07 2.22261e+07 2.33616e+07 2.36895e+07 2.39545e+07 2.39942e+07 2.40249e+07 2.42877e+07
          2.47328e+07 2.52174e+07 2.54698e+07 2.567e+07 2.61378e+07 2.66771e+07 2.18261e+07 2.18767e+07 2.29373e+07 2.38561e+07 2.40696e+07 2.42528e+07
          2.42885e+07 2.43318e+07 2.4571e+07 2.51635e+07 2.56428e+07 2.57567e+07 2.59476e+07 2.64966e+07 2.70789e+07 2.21985e+07 2.22533e+07 2.33787e+07
          2.42165e+07 2.44109e+07 2.45416e+07 2.45798e+07 2.46566e+07 2.49358e+07 2.55304e+07 2.59279e+07 2.60178e+07 2.6273e+07 2.68686e+07 2.76339e+07
          2.27404e+07 2.28031e+07 2.3725e+07 2.44989e+07 2.47155e+07 2.48088e+07 2.49749e+07 2.51665e+07 2.54733e+07 2.59834e+07 2.62334e+07 2.62735e+07
          2.65351e+07 2.72933e+07 2.81885e+07 2.33981e+07 2.34999e+07 2.40267e+07 2.46075e+07 2.49672e+07 2.50431e+07 2.54405e+07 2.58711e+07 2.61033e+07
          2.64462e+07 2.66118e+07 2.66467e+07 2.69246e+07 2.77274e+07 2.85187e+07 2.4244e+07 2.43685e+07 2.46113e+07 2.49443e+07 2.52027e+07 2.52374e+07
          2.58377e+07 2.65068e+07 2.66939e+07 2.68877e+07 2.70043e+07 2.70516e+07 2.72931e+07 2.80959e+07 2.87624e+07 2.49661e+07 2.50387e+07 2.51553e+07
          2.53808e+07 2.55696e+07 2.5586e+07 2.62614e+07 2.7145e+07 2.72315e+07 2.73374e+07 2.74135e+07 2.74694e+07 2.77102e+07 2.84708e+07 2.9028e+07
          2.55064e+07 2.55577e+07 2.5607e+07 2.58612e+07 2.6054e+07 2.61915e+07 2.70078e+07 2.77445e+07 2.77979e+07 2.7859e+07 2.79007e+07 2.79874e+07
          2.82101e+07 2.92668e+07 2.98052e+07 2.59283e+07 2.5982e+07 2.60807e+07 2.64825e+07 2.68998e+07 2.71676e+07 2.78264e+07 2.8363e+07 2.84108e+07
          2.84206e+07 2.84022e+07 2.85837e+07 2.97312e+07 3.04654e+07 3.02545e+07 2.62646e+07 2.631e+07 2.66807e+07 2.72124e+07 2.80589e+07 2.81529e+07
          2.85702e+07 2.89084e+07 2.89594e+07 2.90337e+07 2.91728e+07 3.00297e+07 3.0771e+07 3.09606e+07 3.08007e+07 2.70996e+07 2.71322e+07 2.74909e+07
          2.80332e+07 2.86693e+07 2.87518e+07 2.90562e+07 2.92603e+07 2.93121e+07 2.93927e+07 2.97144e+07 3.05484e+07 3.11731e+07 3.15181e+07 3.13195e+07
          2.79373e+07 2.79738e+07 2.81098e+07 2.89961e+07 2.91877e+07 2.92274e+07 2.93722e+07 2.95026e+07 2.95525e+07 2.96188e+07 3.00643e+07 3.10629e+07
          3.17338e+07 3.20674e+07 3.1796e+07 2.86123e+07 2.86696e+07 2.90341e+07 2.93581e+07 2.95027e+07 2.95473e+07 2.96549e+07 2.97472e+07 2.97993e+07
          2.98593e+07 3.0412e+07 3.1471e+07 3.2157e+07 3.24258e+07 3.22724e+07 2.89424e+07 2.90093e+07 2.92399e+07 2.95891e+07 2.97698e+07 2.9818e+07
          2.99085e+07 2.99862e+07 3.00336e+07 3.0091e+07 3.07003e+07 3.18729e+07 3.25762e+07 3.27728e+07 3.2941e+07 2.92044e+07 2.92636e+07 2.94752e+07
          2.98225e+07 2.99988e+07 3.00476e+07 3.01334e+07 3.02052e+07 3.0253e+07 3.03178e+07 3.09214e+07 3.22151e+07 3.29888e+07 3.31396e+07 3.35769e+07
          2.94217e+07 2.94899e+07 2.96581e+07 2.99792e+07 3.01995e+07 3.0254e+07 3.03456e+07 3.04208e+07 3.04872e+07 3.05713e+07 3.14281e+07 3.28125e+07
          3.33703e+07 3.35307e+07 3.40702e+07 2.96291e+07 2.97002e+07 2.98497e+07 3.01639e+07 3.03888e+07 3.04494e+07 3.0556e+07 3.06422e+07 3.07305e+07
          3.08288e+07 3.19877e+07 3.34264e+07 3.37665e+07 3.39654e+07 3.45506e+07 2.98164e+07 2.98808e+07 3.00627e+07 3.03948e+07 3.05779e+07 3.06488e+07
          3.0775e+07 3.08755e+07 3.09914e+07 3.1116e+07 3.24593e+07 3.39298e+07 3.42199e+07 3.44447e+07 3.48903e+07 2.99858e+07 3.00468e+07 3.02056e+07
          3.05391e+07 3.07759e+07 3.08488e+07 3.09915e+07 3.11093e+07 3.12523e+07 3.14226e+07 3.29824e+07 3.43651e+07 3.46881e+07 3.489e+07 3.51885e+07
        </DataArray>
        <DataArray type="Float32" Name="pressure[2]" NumberOfComponents="1" format="ascii">
          2.10392e+07 2.10537e+07 2.16671e+07 2.23054e+07 2.26801e+07 2.3103e+07 2.32349e+07 2.32839e+07 2.33433e+07 2.34092e+07 2.35941e+07 2.39005e+07
          2.41278e+07 2.47474e+07 2.54918e+07 2.10836e+07 2.10979e+07 2.17761e+07 2.24486e+07 2.28594e+07 2.32821e+07 2.33788e+07 2.3417e+07 2.34782e+07
          2.35525e+07 2.38095e+07 2.41201e+07 2.43045e+07 2.49425e+07 2.56581e+07 2.11304e+07 2.11496e+07 2.18527e+07 2.25955e+07 2.2962e+07 2.33579e+07
          2.34738e+07 2.35298e+07 2.36091e+07 2.37116e+07 2.40596e+07 2.44127e+07 2.45959e+07 2.51872e+07 2.58687e+07 2.12328e+07 2.12791e+07 2.17236e+07
          2.27306e+07 2.30921e+07 2.34741e+07 2.35789e+07 2.36299e+07 2.37521e+07 2.3912e+07 2.43776e+07 2.47854e+07 2.49669e+07 2.5478e+07 2.61307e+07
          2.13656e+07 2.13894e+07 1.9801e+07 2.28325e+07 2.32853e+07 2.36879e+07 2.37562e+07 2.37928e+07 2.39892e+07 2.42878e+07 2.47605e+07 2.51455e+07
          2.53312e+07 2.58068e+07 2.63883e+07 2.15671e+07 2.16102e+07 2.22261e+07 2.33616e+07 2.36895e+07 2.39545e+07 2.39942e+07 2.40249e+07 2.42877e+07
          2.47328e+07 2.52174e+07 2.54698e+07 2.567e+07 2.61378e+07 2.66771e+07 2.18261e+07 2.18767e+07 2.29373e+07 2.38561e+07 2.40696e+07 2.42528e+07
          2.42885e+07 2.43318e+07 2.4571e+07 2.51635e+07 2.56428e+07 2.57567e+07 2.59476e+07 2.64966e+07 2.70789e+07 2.21985e+07 2.22533e+07 2.33787e+07
          2.42165e+07 2.44109e+07 2.45416e+07 2.45798e+07 2.46566e+07 2.49358e+07 2.55304e+07 2.59279e+07 2.60178e+07 2.6273e+07 2.68686e+07 2.76339e+07
          2.27404e+07 2.28031e+07 2.3725e+07 2.44989e+07 2.47155e+07 2.48088e+07 2.49749e+07 2.51665e+07 2.54733e+07 2.59834e+07 2.62334e+07 2.62735e+07
          2.65351e+07 2.72933e+07 2.81885e+07 2.33981e+07 2.34999e+07 2.40267e+07 2.46075e+07 2.49672e+07 2.50431e+07 2.54405e+07 2.58711e+07 2.61033e+07
          2.64462e+07 2.66118e+07 2.66467e+07 2.69246e+07 2.77274e+07 2.85187e+07 2.4244e+07 2.43685e+07 2.46113e+07 2.49443e+07 2.52027e+07 2.52374e+07
          2.58377e+07 2.65068e+07 2.66939e+07 2.68877e+07 2.70043e+07 2.70516e+07 2.72931e+07 2.80959e+07 2.87624e+07 2.49661e+07 2.50387e+07 2.51553e+07
          2.53808e+07 2.55696e+07 2.5586e+07 2.62614e+07 2.7145e+07 2.72315e+07 2.73374e+07 2.74135e+07 2.74694e+07 2.77102e+07 2.84708e+07 2.9028e+07
          2.55064e+07 2.55577e+07 2.5607e+07 2.58612e+07 2.6054e+07 2.61915e+07 2.70078e+07 2.77445e+07 2.77979e+07 2.7859e+07 2.79007e+07 2.79874e+07
          2.82101e+07 2.92668e+07 2.98052e+07 2.59283e+07 2.5982e+07 2.60807e+07 2.64825e+07 2.68998e+07 2.71676e+07 2.78264e+07 2.8363e+07 2.84108e+07
          2.84206e+07 2.84022e+07 2.85837e+07 2.97312e+07 3.04654e+07 3.02545e+07 2.62646e+07 2.631e+07 2.66807e+07 2.72124e+07 2.80589e+07 2.81529e+07
          2.85702e+07 2.89084e+07 2.89594e+07 2.90337e+07 2.91728e+07 3.00297e+07 3.0771e+07 3.09606e+07 3.08007e+07 2.70996e+07 2.71322e+07 2.74909e+07
          2.80332e+07 2.86693e+07 2.87518e+07 2.90562e+07 2.92603e+07 2.93121e+07 2.93927e+07 2.97144e+07 3.05484e+07 3.11731e+07 3.15181e+07 3.13195e+07
          2.79373e+07 2.79738e+07 2.81098e+07 2.89961e+07 2.91877e+07 2.92274e+07 2.93722e+07 2.95026e+07 2.95525e+07 2.96188e+07 3.00643e+07 3.10629e+07
          3.17338e+07 3.20674e+07 3.1796e+07 2.86123e+07 2.86696e+07 2.90341e+07 2.93581e+07 2.95027e+07 2.95473e+07 2.96549e+07 2.97472e+07 2.97993e+07
          2.98593e+07 3.0412e+07 3.1471e+07 3.2157e+07 3.24258e+07 3.22724e+07 2.89424e+07 2.90093e+07 2.92399e+07 2.95891e+07 2.97698e+07 2.9818e+07
          2.99085e+07 2.99862e+07 3.00336e+07 3.0091e+07 3.07003e+07 3.18729e+07 3.25762e+07 3.27728e+07 3.2941e+07 2.92044e+07 2.92636e+07 2.94752e+07
          2.98225e+07 2.99988e+07 3.00476e+07 3.01334e+07 3.02052e+07 3.0253e+07 3.03178e+07 3.09214e+07 3.22151e+07 3.29888e+07 3.31396e+07 3.35769e+07
          2.94217e+07 2.94899e+07 2.96581e+07 2.99792e+07 3.01995e+07 3.0254e+07 3.03456e+07 3.04208e+07 3.04872e+07 3.05713e+07 3.14281e+07 3.28125e+07
          3.33703e+07 3.35307e+07 3.40702e+07 2.96291e+07 2.97002e+07 2.98497e+07 3.01639e+07 3.03888e+07 3.04494e+07 3.0556e+07 3.06422e+07 3.07305e+07
          3.08288e+07 3.19877e+07 3.34264e+07 3.37665e+07 3.39654e+07 3.45506e+07 2.98164e+07 2.98808e+07 3.00627e+07 3.03948e+07 3.05779e+07 3.06488e+07
          3.0775e+07 3.08755e+07 3.09914e+07 3.1116e+07 3.24593e+07 3.39298e+07 3.42199e+07 3.44447e+07 3.48903e+07 2.99858e+07 3.00468e+07 3.02056e+07
          3.05391e+07 3.07759e+07 3.08488e+07 3.09915e+07 3.11093e+07 3.12523e+07 3.14226e+07 3.29824e+07 3.43651e+07 3.46881e+07 3.489e+07 3.51885e+07
        </DataArray>
        <DataArray type="Float32" Name="velocity[0]" NumberOfComponents="1" format="ascii">
          -1.90319e-09 3.81172e-08 1.92313e-10 -3.34364e-09 -3.64359e-10 -1.40149e-09 -4.60321e-10 1.21219e-09 1.89966e-09 -3.69578e-10 -1.86813e-09 -2.60731e-09
          -1.79862e-09 -5.93638e-10 -2.64018e-09 -2.23694e-08 1.30637e-07 4.8025e-10 -1.62348e-08 -3.0947e-11 1.64562e-09 7.87485e-09 5.40419e-09 4.18058e-09
          -2.3908e-09 -3.93131e-09 -1.12169e-08 -6.8825e-09 -1.79245e-09 -6.99941e-09 -2.77901e-08 1.77853e-07 1.16529e-09 4.167e-09 5.03577e-10 4.80748e-09
          1.41461e-08 1.01695e-08 2.13233e-09 -5.98356e-09 -4.70805e-09 -2.82395e-08 -9.81184e-09 -3.7839e-09 -1.04839e-08 -1.34114e-08 1.75135e-07 7.04508e-09
          8.27645e-08 -1.39642e-09 -7.62889e-09 -3.69552e-09 1.14368e-09 -4.08538e-09 -1.31485e-08 -6.01388e-09 -4.87295e-08 -6.9795e-09 -5.5167e-09 -1.42984e-08
          -9.11172e-08 -3.30053e-08 -2.7619e-10 -1.23432e-07 -1.43293e-08 -5.35975e-08 -5.81966e-08 -4.10111e-08 -6.85999e-09 -1.35005e-08 -8.46288e-09 -8.25493e-08
          -3.53627e-09 -5.05525e-09 -1.76177e-08 -1.79012e-07 -2.22961e-07 -7.88343e-09 -2.6451e-07 -3.29601e-08 -1.79024e-07 -1.04829e-07 -8.36884e-08 -4.84775e-09
          -6.05123e-09 -1.29048e-08 -1.20232e-07 -2.08967e-09 -4.0338e-09 -1.98432e-08 -1.79704e-07 -1.9335e-07 -2.40562e-09 -8.90763e-08 -3.32355e-08 -3.34625e-07
          -9.97257e-08 -1.04626e-07 -4.39223e-09 -2.78715e-09 -1.6077e-08 -1.47026e-07 -1.82717e-09 -3.98118e-09 -2.13818e-08 -1.63173e-07 -1.77023e-07 -2.01525e-09
          -1.64333e-08 -2.10685e-08 -4.03162e-07 -5.06091e-08 -1.66733e-07 -5.31366e-09 -2.50325e-09 -1.86553e-08 -1.67194e-07 -1.53862e-09 -4.11494e-09 -2.31177e-08
          -1.46901e-07 -1.59122e-07 -2.32034e-09 -2.46942e-09 -1.3418e-08 -3.91494e-07 -9.62114e-09 -2.6737e-07 -5.35738e-09 -3.06489e-09 -3.23068e-08 -1.64582e-07
          -1.52031e-09 -3.75812e-09 -2.54054e-08 -1.1971e-07 -1.45716e-07 -9.23669e-09 -6.38378e-10 -1.04885e-08 -3.55624e-07 -3.41679e-09 -3.6433e-07 -5.50891e-09
          -3.54313e-09 -5.58023e-08 -1.4183e-07 -2.50643e-09 -3.24182e-09 -2.76697e-08 -8.85173e-08 -1.38415e-07 -2.01719e-08 -1.6236e-09 -2.09489e-08 -3.09772e-07
          -1.38923e-09 -4.31324e-07 -1.14238e-08 -5.09076e-09 -7.20825e-08 -1.1675e-07 -6.33671e-09 -3.71991e-09 -2.96743e-08 -7.04033e-08 -1.32928e-07 -2.71986e-08
          -1.54608e-09 -4.089e-08 -2.6563e-07 -1.44018e-09 -4.28968e-07 -3.071e-08 -1.04429e-08 -7.7911e-08 -8.45738e-08 -1.86997e-08 -6.69132e-09 -3.1744e-08
          -6.28977e-08 -1.33012e-07 -2.47872e-08 -3.09857e-09 -4.84042e-08 -2.28177e-07 -1.92305e-09 -4.29601e-07 -5.26739e-08 -1.97676e-08 -7.221e-08 -4.19234e-08
          -3.3474e-08 -1.62465e-08 -3.35328e-08 -5.85093e-08 -1.35704e-07 -1.58059e-08 -6.6545e-09 -3.88845e-08 -2.17246e-07 -1.95094e-09 -4.5914e-07 -8.09477e-08
          -2.43597e-08 -4.26309e-08 -1.29864e-08 -3.8131e-08 -3.18374e-08 -3.29652e-08 -5.6574e-08 -1.17585e-07 -1.24086e-08 -1.12301e-08 -3.27449e-08 -2.29905e-07
          -1.51704e-09 -4.55435e-07 -1.04045e-07 -2.65348e-08 -1.81393e-08 -5.52534e-09 -3.65718e-08 -4.76319e-08 -2.98054e-08 -6.02631e-08 -8.08521e-08 -1.19448e-08
          -1.11004e-08 -4.00484e-08 -2.4021e-07 -1.92981e-09 -3.96828e-07 -1.09092e-07 -3.33133e-08 -1.02853e-08 -6.0666e-09 -4.02363e-08 -6.85336e-08 -2.52579e-08
          -6.43352e-08 -5.39734e-08 -8.48187e-09 -8.25638e-09 -5.86124e-08 -2.18102e-07 -3.59068e-09 -3.183e-07 -1.11454e-07 -5.16025e-08 -3.96754e-09 -5.58148e-09
          -3.25462e-08 -1.00823e-07 -2.01504e-08 -6.48047e-08 -4.12417e-08 -3.56367e-09 -4.93697e-09 -8.50908e-08 -1.5661e-07 -5.33118e-09 -2.47231e-07 -1.2278e-07
          -8.05327e-08 -2.77528e-09 -3.72652e-09 -2.09827e-08 -1.31329e-07 -1.57805e-08 -5.90899e-08 -2.93697e-08 -1.85838e-09 -1.68585e-09 -1.03454e-07 -9.82378e-08
          -5.57925e-09 -1.79798e-07 -1.24639e-07 -1.29021e-07 -1.61476e-09 -3.06325e-09 -2.73627e-08 -1.49916e-07 -1.38567e-08 -4.93721e-08 -1.98638e-08 -1.67041e-09
          -7.39677e-10 -1.08754e-07 -5.51545e-08 -4.62778e-09 -1.32592e-07 -8.13623e-08 -2.26204e-07 -2.84766e-09 -4.36079e-09 -4.066e-08 -1.58922e-07 -1.49538e-08
          -3.7856e-08 -1.33733e-08 -1.47451e-09 -1.98504e-10 -1.00298e-07 -2.85356e-08 -3.9491e-09 -1.04795e-07 -3.42638e-08 -3.15229e-07 -4.47817e-09 -8.03801e-09
          -4.94502e-08 -1.66051e-07 -1.72207e-08 -2.38487e-08 -6.83452e-09 -2.28954e-09 -8.9056e-10 -7.37573e-08 -1.92699e-08 -3.86117e-09 -9.95695e-08 -1.86671e-08
          -3.33835e-07 -4.08682e-09 -1.54402e-08 -5.41275e-08 -1.7332e-07 -2.13987e-08 -1.11464e-08 -2.73826e-09 -1.03197e-09 -5.89241e-10 -3.66889e-08 -1.43365e-08
          -3.17282e-09 -1.05465e-07 -1.50789e-08 -2.87878e-07 -5.67151e-09 -2.66199e-08 -7.09951e-08 -1.8058e-07 -2.79669e-08 -2.95553e-09 -6.17668e-10 2.23926e-10
          8.06557e-11 -8.62546e-09 -5.46259e-09 -1.16205e-09 -5.38104e-08 -7.0283e-09 -1.24506e-07 -3.74207e-09 -1.61493e-08 -4.2397e-08 -9.28104e-08 -1.5708e-08
        </DataArray>
        <DataArray type="Float32" Name="velocity[1]" NumberOfComponents="1" format="ascii">
          2.95778e-25 6.04114e-24 8.98346e-26 -5.19641e-25 5.66257e-26 0 7.15393e-26 -1.55053e-25 4.4892e-26 5.51745e-24 -3.57177e-24 3.39858e-26
          2.34701e-24 -9.27821e-25 4.10294e-25 2.88492e-24 8.35498e-24 8.12347e-26 -1.4838e-24 -1.7967e-25 7.27641e-24 1.19722e-24 3.28755e-25 -6.89639e-24
          -1.30106e-25 0 -3.37785e-26 3.59667e-26 1.25504e-28 2.67162e-25 -2.04249e-24 -1.13436e-23 -1.751e-24 4.65449e-24 -1.71217e-25 0
          3.28612e-25 -3.18639e-25 -3.77573e-25 0 6.87875e-24 -1.0791e-23 0 1.09763e-24 -2.74444e-25 -3.45543e-25 1.23503e-23 -1.57617e-24
          -7.99941e-24 4.13794e-25 9.96572e-24 -2.09039e-23 2.49646e-23 -3.79134e-24 1.09284e-24 3.39516e-24 -4.46938e-24 3.03417e-24 -1.2738e-24 9.55339e-25
          -1.08378e-25 -6.60837e-23 6.14892e-24 1.13094e-23 -4.13443e-25 -5.66278e-24 1.17664e-25 -9.89995e-26 5.54429e-27 -6.3645e-24 4.11426e-24 -7.57168e-24
          -3.50221e-28 1.25557e-25 -1.46771e-24 -1.44968e-25 7.04092e-24 -6.70501e-25 7.81083e-24 1.8028e-25 -1.44886e-23 0 -1.13252e-25 8.62717e-27
          3.64338e-25 -4.21846e-25 5.58304e-24 -1.39396e-24 8.24763e-25 1.46763e-24 -1.11025e-24 1.32571e-24 0 9.83018e-24 -1.01135e-24 -2.73787e-23
          -8.74592e-26 -6.78453e-26 -3.21396e-24 4.91109e-28 1.95014e-28 -7.74278e-28 3.39439e-26 -6.37179e-29 -1.61616e-24 -1.93077e-25 1.30273e-23 1.44661e-24
          3.34764e-24 -5.51459e-26 3.06768e-23 -5.13588e-26 -5.2564e-26 -1.1841e-25 -6.29875e-26 -3.78186e-24 -1.26168e-23 -2.33769e-28 -3.54134e-25 1.88594e-24
          -1.44715e-24 -9.26777e-24 -9.44117e-26 -1.84624e-24 -3.7529e-25 5.66158e-24 0 0 -8.87866e-25 3.27937e-28 1.11604e-24 2.89657e-24
          -5.71786e-28 5.10651e-26 1.51801e-28 -1.07933e-23 1.057e-24 1.29515e-24 -1.21544e-25 -1.928e-24 5.41398e-24 -9.76585e-24 7.59234e-24 8.90454e-25
          -4.99701e-26 -8.11756e-25 3.06859e-24 -8.04139e-25 0 -2.06237e-24 4.38126e-24 1.37661e-25 6.5909e-25 -1.38944e-25 2.97712e-24 -6.12278e-27
          -6.2143e-24 5.65206e-24 8.44621e-25 1.91263e-25 4.9017e-25 8.35965e-24 1.97534e-24 -2.71721e-25 1.35861e-25 -4.99582e-24 9.71932e-25 -4.35815e-25
          -2.97893e-26 5.16677e-25 -1.91722e-23 4.62832e-26 -3.1852e-24 -2.38665e-24 -6.41416e-25 -6.133e-25 3.58856e-24 -1.82702e-24 1.07018e-24 -1.85488e-25
          4.78004e-24 1.00944e-23 0 -2.26889e-25 -2.62659e-25 2.88302e-24 2.81625e-26 3.28999e-24 -1.25984e-24 -4.14897e-29 -5.04977e-24 -1.53882e-24
          8.90813e-25 -6.95932e-25 -5.83451e-28 -4.65412e-25 1.08707e-27 9.85533e-25 -6.50406e-25 4.09148e-27 1.34188e-23 -2.36739e-26 1.30561e-24 2.33816e-24
          3.57661e-24 5.05039e-24 3.46578e-24 -5.21323e-24 8.04062e-28 -2.47081e-24 -4.31278e-24 -7.76291e-24 -4.00978e-28 6.79965e-25 2.64224e-25 6.86207e-28
          -4.30074e-26 -5.6983e-24 1.69838e-24 0 0 4.79415e-25 4.14354e-24 -5.35497e-25 4.63269e-24 0 2.96287e-24 0
          -6.59815e-25 8.71494e-25 5.32921e-28 1.07157e-25 -7.22933e-24 2.17353e-28 1.51532e-28 -6.53547e-29 4.32004e-24 2.5549e-28 -1.29744e-24 -2.16034e-24
          5.06018e-29 1.21439e-24 2.7702e-28 3.58823e-26 2.01457e-24 -1.1104e-23 0 -1.13347e-23 0 -1.6028e-28 3.17226e-24 -3.93141e-24
          -1.83808e-24 9.76905e-29 1.36712e-24 0 3.58684e-24 0 6.23739e-25 1.93927e-24 5.49348e-24 1.19063e-25 -6.06949e-24 -5.50343e-24
          -2.27453e-24 1.86249e-25 5.73914e-26 1.24465e-28 -1.81195e-24 -1.08535e-24 4.22315e-24 -2.06603e-24 2.28973e-24 -1.90599e-24 7.53371e-25 9.51475e-24
          -8.05149e-26 -4.41019e-24 1.04008e-23 5.67749e-24 -3.41649e-24 7.44713e-26 9.50499e-25 -3.72827e-28 1.06814e-24 2.30923e-28 -3.8043e-24 8.22762e-25
          -1.75818e-24 1.40662e-25 -2.93418e-24 -1.34279e-25 -5.85316e-24 -5.29435e-24 9.84293e-24 2.79043e-25 3.65727e-24 1.11611e-24 -3.75595e-25 -8.80416e-25
          -1.01644e-24 6.13165e-25 0 -3.71914e-26 -1.38468e-24 4.68602e-24 -8.23858e-24 8.23945e-24 -5.93121e-24 1.04751e-27 0 0
          2.50086e-25 -6.80749e-28 1.42043e-24 -1.16046e-24 -1.21871e-24 1.12557e-24 -1.89228e-24 -1.03143e-24 -1.37854e-24 2.39233e-26 5.81386e-25 -3.86962e-24
          1.39054e-23 -2.65156e-25 -6.66593e-24 4.7639e-25 9.7034e-25 1.89904e-29 -8.13326e-25 -3.2203e-28 -3.67974e-28 1.15553e-25 -3.02123e-24 5.30773e-25
          -1.319e-25 1.0545e-23 -4.37897e-24 0 -2.81705e-25 -8.8219e-25 6.78545e-24 -7.84235e-25 0 -4.59635e-25 -3.62864e-28 -3.75145e-25
          6.37031e-25 -1.34004e-24 -2.21625e-24 -3.62246e-25 -2.81734e-24 1.09228e-24 -3.02557e-23 0 3.02592e-23 -2.2195e-23 1.83381e-23 4.61226e-25
        </DataArray>
        <DataArray type="Float32" Name="velocity[2]" NumberOfComponents="1" format="ascii">
          -1.97867e-10 5.12866e-09 -3.39346e-09 -3.78423e-09 -3.01094e-09 -3.06e-09 -2.78661e-09 -2.49603e-09 -2.49806e-09 -2.96508e-09 -3.06075e-09 -2.88272e-09
          -2.43089e-09 -1.97181e-09 -1.34565e-09 -2.69146e-09 2.28536e-08 -2.7483e-09 -5.15072e-09 -1.79822e-09 -1.70506e-09 -1.02119e-09 -1.75538e-09 -2.05039e-09
          -3.13188e-09 -3.28864e-09 -4.16809e-09 -2.79617e-09 -1.56318e-09 -1.80729e-09 -5.7624e-09 3.0011e-08 -7.92021e-10 -1.74413e-09 -3.80805e-09 -2.92531e-09
          -1.11897e-09 -1.78249e-09 -3.0752e-09 -4.24219e-09 -3.85958e-09 -7.27152e-09 -3.35639e-09 -2.07544e-09 -2.43722e-09 -2.43025e-09 3.05192e-08 2.39115e-10
          1.07777e-08 -6.31435e-09 -6.7306e-09 -5.06866e-09 -3.49596e-09 -3.86934e-09 -4.98332e-09 -3.42662e-09 -1.03165e-08 -2.54704e-09 -2.39696e-09 -3.20383e-09
          -1.07577e-08 7.0162e-10 -1.05316e-09 -2.98372e-08 -1.35691e-08 -1.81627e-08 -1.62459e-08 -1.12977e-08 -4.45437e-09 -5.82475e-09 -4.98508e-09 -1.64675e-08
          -1.13694e-09 -1.60374e-09 -3.53007e-09 -3.09067e-08 -3.90736e-08 -2.61493e-09 -5.38382e-08 -1.81311e-08 -3.91392e-08 -2.15456e-08 -1.72751e-08 -3.08279e-09
          -3.4204e-09 -4.55064e-09 -2.25035e-08 -9.0252e-10 -1.31278e-09 -3.81751e-09 -3.21641e-08 -3.53159e-08 -1.91538e-09 -2.02418e-08 -1.37859e-08 -6.4175e-08
          -1.99714e-08 -2.08874e-08 -2.90518e-09 -2.6095e-09 -4.95153e-09 -2.72055e-08 -7.7957e-10 -1.11796e-09 -3.96486e-09 -2.92414e-08 -3.25318e-08 -2.01022e-09
          -5.03931e-09 -6.63296e-09 -7.4039e-08 -1.26206e-08 -3.26542e-08 -2.7586e-09 -2.22396e-09 -4.92141e-09 -3.05767e-08 -9.97066e-10 -1.4894e-09 -4.46053e-09
          -2.63447e-08 -2.92823e-08 -1.92248e-09 -2.02713e-09 -4.21716e-09 -7.16884e-08 -5.1704e-09 -4.94473e-08 -1.99182e-09 -1.60113e-09 -6.0198e-09 -2.91687e-08
          -9.47107e-10 -1.36387e-09 -4.85706e-09 -2.23056e-08 -2.82354e-08 -3.69494e-09 -1.48064e-09 -3.15694e-09 -6.49983e-08 -3.90641e-09 -6.62921e-08 -1.68802e-09
          -1.29925e-09 -9.74332e-09 -2.49605e-08 -1.16526e-09 -1.29249e-09 -5.25499e-09 -1.63657e-08 -2.59987e-08 -4.83168e-09 -1.1755e-09 -4.01851e-09 -5.55522e-08
          -2.35806e-09 -7.76915e-08 -2.83826e-09 -1.34641e-09 -1.28366e-08 -2.11381e-08 -2.14466e-09 -1.34982e-09 -5.52397e-09 -1.28185e-08 -2.44039e-08 -5.67451e-09
          -9.04096e-10 -7.3463e-09 -4.73701e-08 -1.66243e-09 -7.7589e-08 -7.07758e-09 -2.507e-09 -1.41425e-08 -1.64526e-08 -5.4658e-09 -2.36072e-09 -5.99538e-09
          -1.11842e-08 -2.34829e-08 -4.69134e-09 -1.24379e-09 -9.24845e-09 -4.19e-08 -2.86135e-09 -7.77056e-08 -1.01901e-08 -3.69325e-09 -1.31893e-08 -9.63249e-09
          -9.08589e-09 -4.45995e-09 -6.10657e-09 -1.05146e-08 -2.43457e-08 -3.5575e-09 -2.1666e-09 -8.16243e-09 -3.96725e-08 -1.36633e-09 -8.17491e-08 -1.36397e-08
          -2.47775e-09 -7.13966e-09 -3.73865e-09 -8.65309e-09 -6.22634e-09 -5.42424e-09 -9.90482e-09 -2.1475e-08 -3.77821e-09 -3.41255e-09 -6.99173e-09 -4.14297e-08
          -9.2726e-10 -8.12977e-08 -1.94823e-08 -5.52765e-09 -4.07092e-09 -2.02038e-09 -7.56542e-09 -8.30579e-09 -4.58882e-09 -1.0451e-08 -1.48593e-08 -3.7357e-09
          -3.79128e-09 -8.7277e-09 -4.34804e-08 -1.20158e-09 -7.20575e-08 -2.24336e-08 -8.78456e-09 -4.92678e-09 -4.4743e-09 -1.01503e-08 -1.26222e-08 -3.60244e-09
          -1.12483e-08 -9.71564e-09 -2.31122e-09 -2.50994e-09 -1.07102e-08 -3.94177e-08 -2.8416e-09 -5.91631e-08 -2.35281e-08 -1.23918e-08 -3.46108e-09 -3.88328e-09
          -9.52681e-09 -1.92133e-08 -2.69983e-09 -1.14921e-08 -7.64803e-09 -1.45016e-09 -2.04682e-09 -1.56088e-08 -2.90889e-08 -3.99741e-09 -4.76573e-08 -2.60981e-08
          -1.7399e-08 -3.14035e-09 -3.3571e-09 -6.39345e-09 -2.38905e-08 -2.17741e-09 -1.07337e-08 -6.15806e-09 -1.60466e-09 -1.53068e-09 -1.92258e-08 -1.91774e-08
          -3.9824e-09 -3.54736e-08 -2.70563e-08 -2.70275e-08 -3.24273e-09 -3.56225e-09 -7.46804e-09 -2.75154e-08 -2.40585e-09 -9.03612e-09 -4.29297e-09 -1.28075e-09
          -1.22457e-09 -2.02864e-08 -1.16919e-08 -3.67488e-09 -2.6753e-08 -2.02655e-08 -4.53167e-08 -3.28459e-09 -3.33108e-09 -9.14645e-09 -2.91745e-08 -3.03911e-09
          -7.11138e-09 -3.42772e-09 -1.47577e-09 -1.18763e-09 -1.93017e-08 -7.48448e-09 -3.51728e-09 -2.15456e-08 -1.01294e-08 -5.94266e-08 -3.61304e-09 -4.13683e-09
          -1.12178e-08 -3.08284e-08 -3.38938e-09 -4.70324e-09 -2.33075e-09 -1.64003e-09 -1.35199e-09 -1.51189e-08 -6.52255e-09 -3.87248e-09 -2.06451e-08 -6.4335e-09
          -6.24451e-08 -4.59693e-09 -6.28293e-09 -1.257e-08 -3.30123e-08 -4.813e-09 -2.31463e-09 -1.2564e-09 -1.15923e-09 -1.24732e-09 -8.6874e-09 -5.94213e-09
          -4.15568e-09 -2.21584e-08 -6.224e-09 -5.59428e-08 -7.61908e-09 -1.08567e-08 -1.74205e-08 -3.49829e-08 -6.08127e-09 -7.18327e-10 -5.34253e-10 -3.97665e-10
          -3.99889e-10 -2.3914e-09 -2.54896e-09 -2.07681e-09 -1.28265e-08 -6.43348e-09 -3.25495e-08 -1.39509e-08 -1.22195e-08 -1.39375e-08 -1.94537e-08 -3.26447e-09
        </DataArray>
        <DataArray type="Float32" Name="z[0]" NumberOfComponents="1" format="ascii">
          0.150578 0.150579 0.15058 0.150582 0.150582 0.150583 0.150584 0.150585 0.150585 0.150586 0.150587 0.150588
          0.150589 0.150591 0.150596 0.150581 0.150582 0.150583 0.150585 0.150586 0.150587 0.150587 0.150588 0.150588
          0.150589 0.15059 0.150591 0.150593 0.150595 0.150599 0.150584 0.150585 0.150587 0.150588 0.150589 0.15059
          0.15059 0.150591 0.150592 0.150593 0.150593 0.150595 0.150596 0.150598 0.150602 0.150588 0.150589 0.15059
          0.150591 0.150592 0.150593 0.150594 0.150594 0.150595 0.150596 0.150597 0.150598 0.150599 0.150601 0.150605
          0.150591 0.150592 0.150593 0.150594 0.150595 0.150596 0.150597 0.150597 0.150598 0.150599 0.1506 0.150601
          0.150602 0.150604 0.150609 0.150594 0.150595 0.150596 0.150597 0.150598 0.150599 0.1506 0.157548 0.150601
          0.150602 0.150603 0.150604 0.150605 0.150607 0.150612 0.150597 0.150598 0.150599 0.150601 0.150601 0.150602