<?xml version="1.0"?>
<VTKFile type="UnstructuredGrid" version="0.1" byte_order="LittleEndian">
  <UnstructuredGrid>
    <Piece NumberOfCells="360" NumberOfPoints="800">
      <CellData Scalars="pressure[0]">
        <DataArray type="Float32" Name="pressure[0]" NumberOfComponents="1" format="ascii">
          2.11038e+07 2.11185e+07 2.20454e+07 2.29035e+07 2.32453e+07 2.36547e+07 2.37902e+07 2.38394e+07 2.38992e+07 2.39623e+07 2.41356e+07 2.44319e+07
          2.4662e+07 2.52818e+07 2.60117e+07 2.11481e+07 2.11629e+07 2.21988e+07 2.31126e+07 2.34474e+07 2.38529e+07 2.39499e+07 2.39874e+07 2.40474e+07
          2.41182e+07 2.43669e+07 2.46745e+07 2.48535e+07 2.54823e+07 2.61775e+07 2.11928e+07 2.12073e+07 2.22697e+07 2.32826e+07 2.35893e+07 2.39653e+07
          2.40793e+07 2.41332e+07 2.42094e+07 2.43079e+07 2.46532e+07 2.50162e+07 2.51781e+07 2.57411e+07 2.63864e+07 2.12382e+07 2.12569e+07 2.21015e+07
          2.34298e+07 2.3744e+07 2.41315e+07 2.42483e+07 2.43138e+07 2.44359e+07 2.45911e+07 2.50378e+07 2.54345e+07 2.55872e+07 2.60416e+07 2.66441e+07
          2.1319e+07 2.13477e+07 1.97682e+07 2.35595e+07 2.41263e+07 2.47083e+07 2.47907e+07 2.48322e+07 2.4922e+07 2.5165e+07 2.55217e+07 2.58711e+07
          2.59938e+07 2.63725e+07 2.68954e+07 2.15057e+07 2.15491e+07 2.17592e+07 2.4275e+07 2.47767e+07 2.52335e+07 2.52904e+07 2.5342e+07 2.5547e+07
          2.64379e+07 2.63205e+07 2.62502e+07 2.63623e+07 2.67054e+07 2.71744e+07 2.17386e+07 2.17877e+07 2.2463e+07 2.49835e+07 2.54092e+07 2.57655e+07
          2.58234e+07 2.5886e+07 2.5964e+07 2.62588e+07 2.64594e+07 2.65188e+07 2.66414e+07 2.70561e+07 2.75559e+07 2.20639e+07 2.21164e+07 2.30015e+07
          2.54409e+07 2.59286e+07 2.62138e+07 2.62657e+07 2.63123e+07 2.63841e+07 2.65561e+07 2.66902e+07 2.67499e+07 2.69366e+07 2.74124e+07 2.80757e+07
          2.25276e+07 2.25888e+07 2.35116e+07 2.56627e+07 2.6413e+07 2.66469e+07 2.67346e+07 2.68172e+07 2.68338e+07 2.68864e+07 2.69386e+07 2.69705e+07
          2.71745e+07 2.7809e+07 2.85916e+07 2.30865e+07 2.31918e+07 2.39483e+07 2.47484e+07 2.67869e+07 2.70238e+07 2.72265e+07 2.74128e+07 2.72762e+07
          2.72285e+07 2.72298e+07 2.72616e+07 2.74946e+07 2.82178e+07 2.89033e+07 2.38683e+07 2.40732e+07 2.46562e+07 2.52192e+07 2.71303e+07 2.73117e+07
          2.76383e+07 2.79206e+07 2.77298e+07 2.7613e+07 2.75264e+07 2.75656e+07 2.77818e+07 2.85951e+07 2.94215e+07 2.53617e+07 2.55018e+07 2.56333e+07
          2.60146e+07 2.74876e+07 2.75973e+07 2.8063e+07 2.84465e+07 2.85169e+07 2.8282e+07 2.82779e+07 2.83389e+07 2.87819e+07 2.9211e+07 3.01007e+07
          2.64391e+07 2.64697e+07 2.63519e+07 2.66901e+07 2.79603e+07 2.80707e+07 2.85709e+07 2.90116e+07 2.91079e+07 2.91311e+07 2.91374e+07 2.93367e+07
          2.9793e+07 3.0524e+07 3.07055e+07 2.72923e+07 2.73232e+07 2.70812e+07 2.79867e+07 2.87491e+07 2.88305e+07 2.92431e+07 2.95709e+07 2.96386e+07
          2.97232e+07 2.98058e+07 3.02381e+07 3.08093e+07 3.1257e+07 3.10951e+07 2.7985e+07 2.79849e+07 2.80034e+07 2.9065e+07 2.94768e+07 2.95352e+07
          2.98116e+07 3.00102e+07 3.00601e+07 3.01371e+07 3.02849e+07 3.09588e+07 3.14841e+07 3.16516e+07 3.15541e+07 2.86081e+07 2.8634e+07 2.87278e+07
          2.97068e+07 2.99225e+07 2.99761e+07 3.01724e+07 3.03027e+07 3.03506e+07 3.04207e+07 3.06877e+07 3.13346e+07 3.18174e+07 3.20998e+07 3.19887e+07
          2.92528e+07 2.93042e+07 2.9679e+07 3.01792e+07 3.02911e+07 3.03303e+07 3.04354e+07 3.05275e+07 3.05743e+07 3.06353e+07 3.09845e+07 3.17523e+07
          3.22713e+07 3.25465e+07 3.23888e+07 2.97764e+07 2.98357e+07 3.01796e+07 3.04412e+07 3.05567e+07 3.06011e+07 3.06838e+07 3.07533e+07 3.08019e+07
          3.08581e+07 3.12854e+07 3.20957e+07 3.26256e+07 3.28534e+07 3.27878e+07 3.00748e+07 3.01399e+07 3.03448e+07 3.06383e+07 3.07911e+07 3.08385e+07
          3.09118e+07 3.09734e+07 3.10185e+07 3.10728e+07 3.15418e+07 3.2436e+07 3.29783e+07 3.31523e+07 3.33303e+07 3.03165e+07 3.03746e+07 3.05585e+07
          3.08496e+07 3.1e+07 3.10479e+07 3.11191e+07 3.11777e+07 3.12232e+07 3.1283e+07 3.17474e+07 3.27318e+07 3.33265e+07 3.34661e+07 3.38477e+07
          3.05221e+07 3.05872e+07 3.07344e+07 3.10037e+07 3.1189e+07 3.12412e+07 3.13175e+07 3.13794e+07 3.14388e+07 3.15131e+07 3.21669e+07 3.32188e+07
          3.36515e+07 3.37982e+07 3.42571e+07 3.07196e+07 3.0787e+07 3.09187e+07 3.11815e+07 3.13701e+07 3.14268e+07 3.15147e+07 3.15852e+07 3.1661e+07
          3.17459e+07 3.26259e+07 3.3718e+07 3.39874e+07 3.41629e+07 3.46567e+07 3.09011e+07 3.09631e+07 3.11203e+07 3.13964e+07 3.15511e+07 3.16156e+07
          3.17184e+07 3.17998e+07 3.18964e+07 3.2001e+07 3.30189e+07 3.41344e+07 3.43661e+07 3.4561e+07 3.49508e+07 3.10684e+07 3.11277e+07 3.12662e+07
          3.15425e+07 3.1739e+07 3.18051e+07 3.19204e+07 3.20148e+07 3.21317e+07 3.22706e+07 3.34503e+07 3.44999e+07 3.47562e+07 3.49339e+07 3.52139e+07
        </DataArray>
        <DataArray type="Float32" Name="pressure[1]" NumberOfComponents="1" format="ascii">
          2.11038e+07 2.11185e+07 2.20454e+07 2.29035e+07 2.32453e+07 2.36547e+07 2.37902e+07 2.38394e+07 2.38992e+07 2.39623e+07 2.41356e+07 2.44319e+07
          2.4662e+07 2.52818e+07 2.60117e+07 2.11481e+07 2.11629e+07 2.21988e+07 2.31126e+07 2.34474e+07 2.38529e+07 2.39499e+07 2.39874e+07 2.40474e+07
          2.41182e+07 2.43669e+07 2.46745e+07 2.48535e+07 2.54823e+07 2.61775e+07 2.11928e+07 2.12073e+07 2.22697e+07 2.32826e+07 2.35893e+07 2.39653e+07
          2.40793e+07 2.41332e+07 2.42094e+07 2.43079e+07 2.46532e+07 2.50162e+07 2.51781e+07 2.57411e+07 2.63864e+07 2.12382e+07 2.12569e+07 2.21015e+07
          2.34298e+07 2.3744e+07 2.41315e+07 2.42483e+07 2.43138e+07 2.44359e+07 2.45911e+07 2.50378e+07 2.54345e+07 2.55872e+07 2.60416e+07 2.66441e+07
          2.1319e+07 2.13477e+07 1.97682e+07 2.35595e+07 2.41263e+07 2.47083e+07 2.47907e+07 2.48322e+07 2.4922e+07 2.5165e+07 2.55217e+07 2.58711e+07
          2.59938e+07 2.63725e+07 2.68954e+07 2.15057e+07 2.15491e+07 2.17592e+07 2.4275e+07 2.47767e+07 2.52335e+07 2.52904e+07 2.5342e+07 2.5547e+07
          2.64379e+07 2.63205e+07 2.62502e+07 2.63623e+07 2.67054e+07 2.71744e+07 2.17386e+07 2.17877e+07 2.2463e+07 2.49835e+07 2.54092e+07 2.57655e+07
          2.58234e+07 2.5886e+07 2.5964e+07 2.62588e+07 2.64594e+07 2.65188e+07 2.66414e+07 2.70561e+07 2.75559e+07 2.20639e+07 2.21164e+07 2.30015e+07
          2.54409e+07 2.59286e+07 2.62138e+07 2.62657e+07 2.63123e+07 2.63841e+07 2.65561e+07 2.66902e+07 2.67499e+07 2.69366e+07 2.74124e+07 2.80757e+07
          2.25276e+07 2.25888e+07 2.35116e+07 2.56627e+07 2.6413e+07 2.66469e+07 2.67346e+07 2.68172e+07 2.68338e+07 2.68864e+07 2.69386e+07 2.69705e+07
          2.71745e+07 2.7809e+07 2.85916e+07 2.30865e+07 2.31918e+07 2.39483e+07 2.47484e+07 2.67869e+07 2.70238e+07 2.72265e+07 2.74128e+07 2.72762e+07
          2.72285e+07 2.72298e+07 2.72616e+07 2.74946e+07 2.82178e+07 2.89033e+07 2.38683e+07 2.40732e+07 2.46562e+07 2.52192e+07 2.71303e+07 2.73117e+07
          2.76383e+07 2.79206e+07 2.77298e+07 2.7613e+07 2.75264e+07 2.75656e+07 2.77818e+07 2.85951e+07 2.94215e+07 2.53617e+07 2.55018e+07 2.56333e+07
          2.60146e+07 2.74876e+07 2.75973e+07 2.8063e+07 2.84465e+07 2.85169e+07 2.8282e+07 2.82779e+07 2.83389e+07 2.87819e+07 2.9211e+07 3.01007e+07
          2.64391e+07 2.64697e+07 2.63519e+07 2.66901e+07 2.79603e+07 2.80707e+07 2.85709e+07 2.90116e+07 2.91079e+07 2.91311e+07 2.91374e+07 2.93367e+07
          2.9793e+07 3.0524e+07 3.07055e+07 2.72923e+07 2.73232e+07 2.70812e+07 2.79867e+07 2.87491e+07 2.88305e+07 2.92431e+07 2.95709e+07 2.96386e+07
          2.97232e+07 2.98058e+07 3.02381e+07 3.08093e+07 3.1257e+07 3.10951e+07 2.7985e+07 2.79849e+07 2.80034e+07 2.9065e+07 2.94768e+07 2.95352e+07
          2.98116e+07 3.00102e+07 3.00601e+07 3.01371e+07 3.02849e+07 3.09588e+07 3.14841e+07 3.16516e+07 3.15541e+07 2.86081e+07 2.8634e+07 2.87278e+07
          2.97068e+07 2.99225e+07 2.99761e+07 3.01724e+07 3.03027e+07 3.03506e+07 3.04207e+07 3.06877e+07 3.13346e+07 3.18174e+07 3.20998e+07 3.19887e+07
          2.92528e+07 2.93042e+07 2.9679e+07 3.01792e+07 3.02911e+07 3.03303e+07 3.04354e+07 3.05275e+07 3.05743e+07 3.06353e+07 3.09845e+07 3.17523e+07
          3.22713e+07 3.25465e+07 3.23888e+07 2.97764e+07 2.98357e+07 3.01796e+07 3.04412e+07 3.05567e+07 3.06011e+07 3.06838e+07 3.07533e+07 3.08019e+07
          3.08581e+07 3.12854e+07 3.20957e+07 3.26256e+07 3.28534e+07 3.27878e+07 3.00748e+07 3.01399e+07 3.03448e+07 3.06383e+07 3.07911e+07 3.08385e+07
          3.09118e+07 3.09734e+07 3.10185e+07 3.10728e+07 3.15418e+07 3.2436e+07 3.29783e+07 3.31523e+07 3.33303e+07 3.03165e+07 3.03746e+07 3.05585e+07
          3.08496e+07 3.1e+07 3.10479e+07 3.11191e+07 3.11777e+07 3.12232e+07 3.1283e+07 3.17474e+07 3.27318e+07 3.33265e+07 3.34661e+07 3.38477e+07
          3.05221e+07 3.05872e+07 3.07344e+07 3.10037e+07 3.1189e+07 3.12412e+07 3.13175e+07 3.13794e+07 3.14388e+07 3.15131e+07 3.21669e+07 3.32188e+07
          3.36515e+07 3.37982e+07 3.42571e+07 3.07196e+07 3.0787e+07 3.09187e+07 3.11815e+07 3.13701e+07 3.14268e+07 3.15147e+07 3.15852e+07 3.1661e+07
          3.17459e+07 3.26259e+07 3.3718e+07 3.39874e+07 3.41629e+07 3.46567e+07 3.09011e+07 3.09631e+07 3.11203e+07 3.13964e+07 3.15511e+07 3.16156e+07
          3.17184e+07 3.17998e+07 3.18964e+07 3.2001e+07 3.30189e+07 3.41344e+07 3.43661e+07 3.4561e+07 3.49508e+07 3.10684e+07 3.11277e+07 3.12662e+07
          3.15425e+07 3.1739e+07 3.18051e+07 3.19204e+07 3.20148e+07 3.21317e+07 3.22706e+07 3.34503e+07 3.44999e+07 3.47562e+07 3.49339e+07 3.52139e+07
        </DataArray>
        <DataArray type="Float32" Name="pressure[2]" NumberOfComponents="1" format="ascii">
          2.11038e+07 2.11185e+07 2.20454e+07 2.29035e+07 2.32453e+07 2.36547e+07 2.37902e+07 2.38394e+07 2.38992e+07 2.39623e+07 2.41356e+07 2.44319e+07
          2.4662e+07 2.52818e+07 2.60117e+07 2.11481e+07 2.11629e+07 2.21988e+07 2.31126e+07 2.34474e+07 2.38529e+07 2.39499e+07 2.39874e+07 2.40474e+07
          2.41182e+07 2.43669e+07 2.46745e+07 2.48535e+07 2.54823e+07 2.61775e+07 2.11928e+07 2.12073e+07 2.22697e+07 2.32826e+07 2.35893e+07 2.39653e+07
          2.40793e+07 2.41332e+07 2.42094e+07 2.43079e+07 2.46532e+07 2.50162e+07 2.51781e+07 2.57411e+07 2.63864e+07 2.12382e+07 2.12569e+07 2.21015e+07
          2.34298e+07 2.3744e+07 2.41315e+07 2.42483e+07 2.43138e+07 2.44359e+07 2.45911e+07 2.50378e+07 2.54345e+07 2.55872e+07 2.60416e+07 2.66441e+07
          2.1319e+07 2.13477e+07 1.97682e+07 2.35595e+07 2.41263e+07 2.47083e+07 2.47907e+07 2.48322e+07 2.4922e+07 2.5165e+07 2.55217e+07 2.58711e+07
          2.59938e+07 2.63725e+07 2.68954e+07 2.15057e+07 2.15491e+07 2.17592e+07 2.4275e+07 2.47767e+07 2.52335e+07 2.52904e+07 2.5342e+07 2.5547e+07
          2.64379e+07 2.63205e+07 2.62502e+07 2.63623e+07 2.67054e+07 2.71744e+07 2.17386e+07 2.17877e+07 2.2463e+07 2.49835e+07 2.54092e+07 2.57655e+07
          2.58234e+07 2.5886e+07 2.5964e+07 2.62588e+07 2.64594e+07 2.65188e+07 2.66414e+07 2.70561e+07 2.75559e+07 2.20639e+07 2.21164e+07 2.30015e+07
          2.54409e+07 2.59286e+07 2.62138e+07 2.62657e+07 2.63123e+07 2.63841e+07 2.65561e+07 2.66902e+07 2.67499e+07 2.69366e+07 2.74124e+07 2.80757e+07
          2.25276e+07 2.25888e+07 2.35116e+07 2.56627e+07 2.6413e+07 2.66469e+07 2.67346e+07 2.68172e+07 2.68338e+07 2.68864e+07 2.69386e+07 2.69705e+07
          2.71745e+07 2.7809e+07 2.85916e+07 2.30865e+07 2.31918e+07 2.39483e+07 2.47484e+07 2.67869e+07 2.70238e+07 2.72265e+07 2.74128e+07 2.72762e+07
          2.72285e+07 2.72298e+07 2.72616e+07 2.74946e+07 2.82178e+07 2.89033e+07 2.38683e+07 2.40732e+07 2.46562e+07 2.52192e+07 2.71303e+07 2.73117e+07
          2.76383e+07 2.79206e+07 2.77298e+07 2.7613e+07 2.75264e+07 2.75656e+07 2.77818e+07 2.85951e+07 2.94215e+07 2.53617e+07 2.55018e+07 2.56333e+07
          2.60146e+07 2.74876e+07 2.75973e+07 2.8063e+07 2.84465e+07 2.85169e+07 2.8282e+07 2.82779e+07 2.83389e+07 2.87819e+07 2.9211e+07 3.01007e+07
          2.64391e+07 2.64697e+07 2.63519e+07 2.66901e+07 2.79603e+07 2.80707e+07 2.85709e+07 2.90116e+07 2.91079e+07 2.91311e+07 2.91374e+07 2.93367e+07
          2.9793e+07 3.0524e+07 3.07055e+07 2.72923e+07 2.73232e+07 2.70812e+07 2.79867e+07 2.87491e+07 2.88305e+07 2.92431e+07 2.95709e+07 2.96386e+07
          2.97232e+07 2.98058e+07 3.02381e+07 3.08093e+07 3.1257e+07 3.10951e+07 2.7985e+07 2.79849e+07 2.80034e+07 2.9065e+07 2.94768e+07 2.95352e+07
          2.98116e+07 3.00102e+07 3.00601e+07 3.01371e+07 3.02849e+07 3.09588e+07 3.14841e+07 3.16516e+07 3.15541e+07 2.86081e+07 2.8634e+07 2.87278e+07
          2.97068e+07 2.99225e+07 2.99761e+07 3.01724e+07 3.03027e+07 3.03506e+07 3.04207e+07 3.06877e+07 3.13346e+07 3.18174e+07 3.20998e+07 3.19887e+07
          2.92528e+07 2.93042e+07 2.9679e+07 3.01792e+07 3.02911e+07 3.03303e+07 3.04354e+07 3.05275e+07 3.05743e+07 3.06353e+07 3.09845e+07 3.17523e+07
          3.22713e+07 3.25465e+07 3.23888e+07 2.97764e+07 2.98357e+07 3.01796e+07 3.04412e+07 3.05567e+07 3.06011e+07 3.06838e+07 3.07533e+07 3.08019e+07
          3.08581e+07 3.12854e+07 3.20957e+07 3.26256e+07 3.28534e+07 3.27878e+07 3.00748e+07 3.01399e+07 3.03448e+07 3.06383e+07 3.07911e+07 3.08385e+07
          3.09118e+07 3.09734e+07 3.10185e+07 3.10728e+07 3.15418e+07 3.2436e+07 3.29783e+07 3.31523e+07 3.33303e+07 3.03165e+07 3.03746e+07 3.05585e+07
          3.08496e+07 3.1e+07 3.10479e+07 3.11191e+07 3.11777e+07 3.12232e+07 3.1283e+07 3.17474e+07 3.27318e+07 3.33265e+07 3.34661e+07 3.38477e+07
          3.05221e+07 3.05872e+07 3.07344e+07 3.10037e+07 3.1189e+07 3.12412e+07 3.13175e+07 3.13794e+07 3.14388e+07 3.15131e+07 3.21669e+07 3.32188e+07
          3.36515e+07 3.37982e+07 3.42571e+07 3.07196e+07 3.0787e+07 3.09187e+07 3.11815e+07 3.13701e+07 3.14268e+07 3.15147e+07 3.15852e+07 3.1661e+07
          3.17459e+07 3.26259e+07 3.3718e+07 3.39874e+07 3.41629e+07 3.46567e+07 3.09011e+07 3.09631e+07 3.11203e+07 3.13964e+07 3.15511e+07 3.16156e+07
          3.17184e+07 3.17998e+07 3.18964e+07 3.2001e+07 3.30189e+07 3.41344e+07 3.43661e+07 3.4561e+07 3.49508e+07 3.10684e+07 3.11277e+07 3.12662e+07
          3.15425e+07 3.1739e+07 3.18051e+07 3.19204e+07 3.20148e+07 3.21317e+07 3.22706e+07 3.34503e+07 3.44999e+07 3.47562e+07 3.49339e+07 3.52139e+07
        </DataArray>
        <DataArray type="Float32" Name="velocity[0]" NumberOfComponents="1" format="ascii">
          -1.41677e-09 5.76309e-08 -1.44975e-10 -2.19235e-08 -7.22284e-10 -2.45303e-09 -3.57638e-09 -1.07655e-09 -2.13092e-09 -2.86727e-09 -2.29311e-09 -3.45314e-09
          -2.58358e-09 -6.52908e-10 -2.5837e-09 -8.1375e-09 1.70063e-07 2.87265e-10 -7.45592e-08 -7.29144e-10 -8.5914e-10 -1.10527e-09 -1.74633e-09 -6.77731e-09
          -8.62331e-09 -4.96207e-09 -1.42973e-08 -9.14759e-09 -2.01734e-09 -6.83686e-09 -2.82512e-08 2.61309e-07 1.63805e-09 -8.35789e-08 -3.11161e-10 -2.96085e-10
          -1.87695e-09 -4.88271e-09 -1.29497e-08 -1.49755e-08 -6.34339e-09 -3.44534e-08 -1.20783e-08 -4.11726e-09 -1.01519e-08 -2.70588e-08 2.88877e-07 9.74426e-09
          -2.08986e-08 -2.23651e-09 -1.55145e-08 -3.02385e-08 -2.80233e-08 -2.33082e-08 -2.45194e-08 -8.50717e-09 -6.29257e-08 -8.19349e-09 -5.71676e-09 -1.36286e-08
          -6.86788e-08 4.67572e-08 3.39502e-09 -6.03248e-08 -8.10615e-09 -4.4082e-08 -6.25262e-08 -5.87353e-08 -2.55442e-08 -3.16562e-08 -1.54631e-08 -1.08837e-07
          -4.15871e-09 -5.10906e-09 -1.65442e-08 -1.35922e-07 -1.71164e-07 -6.54318e-09 -9.83298e-08 -1.43629e-08 -9.80635e-08 -6.62001e-08 -9.14677e-08 -1.45157e-08
          -1.44181e-08 -1.05341e-08 -1.27846e-07 -2.29286e-09 -3.98428e-09 -1.83954e-08 -1.40819e-07 -1.52341e-07 -2.59673e-09 -3.25553e-08 -1.32872e-08 -1.56914e-07
          -4.92126e-08 -1.48667e-07 -7.05628e-09 1.21318e-09 -5.02897e-09 -1.18295e-07 -1.66692e-09 -3.7684e-09 -1.96272e-08 -1.30488e-07 -1.42404e-07 -2.75718e-09
          -4.98179e-09 -8.32992e-09 -1.84587e-07 -2.75523e-08 -2.18608e-07 -5.2928e-09 -1.60383e-09 -1.1878e-08 -1.19966e-07 -1.26559e-09 -3.77014e-09 -2.1043e-08
          -1.18513e-07 -1.30428e-07 -3.41489e-09 1.72969e-09 -5.30816e-09 -1.93521e-07 -1.07363e-08 -2.82273e-07 -3.75049e-09 -1.88382e-09 -2.05735e-08 -1.10038e-07
          -1.13405e-09 -3.40592e-09 -2.29486e-08 -9.26537e-08 -1.16971e-07 -1.10816e-08 7.14362e-10 -4.06211e-09 -1.96615e-07 -3.64626e-09 -3.45906e-07 -3.52195e-09
          -2.56862e-09 -3.46084e-08 -8.69538e-08 -1.68113e-09 -3.15168e-09 -2.48314e-08 -5.54572e-08 -8.95641e-08 -3.45986e-08 -2.90292e-09 -4.73669e-09 -2.00447e-07
          -1.25394e-09 -4.08469e-07 -4.57551e-09 -5.85829e-09 -4.10861e-08 -6.04009e-08 -4.14844e-09 -5.08903e-09 -2.60511e-08 -3.32077e-08 -6.20505e-08 -5.22302e-08
          -2.67193e-09 -7.28896e-09 -2.06495e-07 -1.05132e-09 -4.45063e-07 -1.339e-08 -6.8959e-09 -3.59546e-08 -3.77137e-08 -1.09217e-08 -7.96656e-09 -2.68047e-08
          -2.99882e-08 -5.98437e-08 -4.36105e-08 -2.41126e-09 -1.1964e-08 -1.96931e-07 -1.49787e-09 -4.47678e-07 -3.96276e-08 -5.79017e-09 -2.48029e-08 -1.82481e-08
          -2.23854e-08 -1.21802e-08 -2.71862e-08 -3.31305e-08 -6.92331e-08 -2.65439e-08 -2.59605e-09 -1.72972e-08 -1.81455e-07 -1.51793e-09 -4.16829e-07 -6.95517e-08
          -1.0504e-08 -1.46118e-08 -5.52672e-09 -2.73994e-08 -2.17986e-08 -2.58721e-08 -4.13966e-08 -6.59849e-08 -1.48439e-08 -2.46168e-09 -2.25951e-08 -1.77338e-07
          -1.06324e-09 -3.73803e-07 -8.37934e-08 -1.81639e-08 -1.05632e-08 -2.97428e-09 -2.56851e-08 -3.40656e-08 -2.29648e-08 -5.12295e-08 -5.28554e-08 -6.9776e-09
          -2.85763e-09 -2.82107e-08 -1.74245e-07 -1.29848e-09 -3.16017e-07 -8.7269e-08 -2.62806e-08 -6.74337e-09 -4.10821e-09 -2.92172e-08 -5.01857e-08 -1.92665e-08
          -5.46312e-08 -4.17597e-08 -3.21621e-09 -3.78666e-09 -3.99105e-08 -1.52083e-07 -2.51571e-09 -2.49713e-07 -8.77422e-08 -4.11852e-08 -2.91357e-09 -4.08557e-09
          -2.3936e-08 -7.45668e-08 -1.52695e-08 -5.33062e-08 -3.30811e-08 -1.37142e-09 -2.52245e-09 -5.87973e-08 -1.09148e-07 -3.86923e-09 -1.91028e-07 -9.47132e-08
          -6.21722e-08 -2.08732e-09 -2.76913e-09 -1.55647e-08 -9.75388e-08 -1.19041e-08 -4.78028e-08 -2.34869e-08 -9.61738e-10 -1.02243e-09 -7.28891e-08 -6.92782e-08
          -4.07283e-09 -1.36557e-07 -9.47844e-08 -9.79014e-08 -1.21396e-09 -2.28535e-09 -2.03896e-08 -1.1157e-07 -1.04187e-08 -3.95279e-08 -1.57849e-08 -1.19134e-09
          -4.88088e-10 -7.78113e-08 -3.94628e-08 -3.40444e-09 -9.99632e-08 -6.13877e-08 -1.70135e-07 -2.13376e-09 -3.25965e-09 -3.03195e-08 -1.18403e-07 -1.12162e-08
          -3.01592e-08 -1.06355e-08 -1.11179e-09 -1.13773e-10 -7.24664e-08 -2.06904e-08 -2.92563e-09 -7.86764e-08 -2.57248e-08 -2.36403e-07 -3.35377e-09 -6.01134e-09
          -3.68688e-08 -1.23817e-07 -1.28926e-08 -1.89492e-08 -5.4161e-09 -1.78873e-09 -6.8109e-10 -5.36703e-08 -1.41236e-08 -2.87027e-09 -7.44921e-08 -1.39819e-08
          -2.50123e-07 -3.05831e-09 -1.15383e-08 -4.0369e-08 -1.29315e-07 -1.60055e-08 -8.83658e-09 -2.16138e-09 -8.05622e-10 -4.49178e-10 -2.68685e-08 -1.05835e-08
          -2.36301e-09 -7.88658e-08 -1.12872e-08 -2.15619e-07 -4.24294e-09 -1.98884e-08 -5.30109e-08 -1.34804e-07 -2.09058e-08 -2.33957e-09 -4.86222e-10 1.81672e-10
          7.06131e-11 -6.36882e-09 -4.0475e-09 -8.66595e-10 -4.02524e-08 -5.26108e-09 -9.3247e-08 -2.79964e-09 -1.20659e-08 -3.16735e-08 -6.93018e-08 -1.17401e-08
        </DataArray>
        <DataArray type="Float32" Name="velocity[1]" NumberOfComponents="1" format="ascii">
          2.20183e-25 9.15896e-24 -2.60544e-26 -3.40717e-24 1.12251e-25 0 5.55811e-25 9.18288e-26 -1.48835e-25 5.52409e-24 -3.31342e-24 -8.40525e-26
          2.19899e-24 -9.65034e-25 4.03765e-25 8.24297e-25 8.35036e-24 -1.57674e-26 -4.77305e-24 5.43379e-27 8.33803e-24 1.46736e-24 3.59721e-25 -8.17409e-24
          1.98465e-25 0 7.60725e-26 -9.85578e-26 -5.91108e-27 2.59454e-25 2.30161e-24 -1.20626e-23 -3.12158e-24 3.37129e-24 2.33222e-25 0
          1.22755e-24 6.15318e-25 -5.6833e-25 0 6.59076e-24 -1.11728e-23 0 1.01485e-24 -2.51681e-25 -5.05342e-24 2.09945e-23 -2.31032e-24
          2.56089e-24 5.79916e-25 1.09141e-23 -2.28446e-23 2.92383e-23 -2.13152e-24 1.62516e-25 3.44985e-24 -4.06314e-24 2.51387e-24 -1.13191e-24 8.52117e-25
          -1.40795e-26 -7.2498e-23 3.46187e-24 4.26483e-24 1.17494e-25 -2.39358e-24 -1.13988e-25 -7.5054e-26 2.32793e-24 -4.50702e-24 5.02689e-24 -8.29069e-24
          3.74617e-26 1.33124e-25 -1.36985e-24 -2.64601e-26 4.76288e-24 -2.66155e-25 3.85518e-24 -7.25393e-26 -5.52793e-24 0 2.72195e-24 6.53491e-24
          -1.11005e-23 -6.80161e-24 1.24192e-23 -1.07853e-24 5.86684e-25 1.37298e-24 -6.98003e-25 6.05356e-25 0 3.45923e-24 -5.49701e-25 -1.09728e-23
          2.75877e-25 -1.88863e-25 -6.28665e-25 -5.59654e-26 2.39838e-25 1.62519e-25 -8.23772e-26 1.05234e-26 -1.489e-24 -7.12789e-26 1.04991e-23 1.04743e-24
          1.40782e-24 6.54223e-26 1.28049e-23 3.55403e-26 1.28916e-25 3.85101e-25 6.14871e-26 -1.47121e-24 -8.72861e-24 6.90266e-26 -2.59333e-25 1.70904e-24
          -1.03768e-24 -7.70049e-24 -1.38631e-25 -1.70375e-24 -1.80501e-25 2.04195e-24 0 0 4.12883e-25 -6.92791e-26 2.29164e-25 3.0943e-24
          1.17226e-25 5.71036e-26 7.68311e-28 -8.71435e-24 1.5024e-24 1.67977e-24 -6.0049e-25 -2.28187e-24 2.58744e-24 -4.85885e-24 5.33263e-24 -2.80031e-25
          -3.22626e-26 2.6463e-25 2.74167e-24 -7.13772e-25 0 -1.85744e-24 2.24089e-25 7.31494e-26 2.50909e-24 -2.2009e-25 2.2767e-24 -2.54096e-27
          -3.20559e-24 8.77912e-24 5.84104e-26 3.83949e-25 -8.39077e-25 4.28291e-24 1.52586e-24 -8.82625e-26 4.41313e-26 -2.22731e-24 2.43308e-24 -2.38429e-25
          1.06697e-25 -1.42374e-24 -1.62284e-23 2.66356e-26 1.29968e-24 -2.56042e-24 2.85373e-25 6.2225e-25 1.56912e-24 -6.92919e-25 8.3542e-25 -7.08168e-26
          2.43318e-24 4.20098e-24 0 -1.06717e-26 4.50038e-25 1.85279e-24 4.49381e-26 -8.9032e-25 -2.80204e-24 5.07458e-27 -1.43167e-24 -6.25199e-25
          1.07954e-24 -6.9261e-25 -7.89898e-28 2.82438e-25 -2.99648e-27 5.45698e-25 -3.70287e-26 1.62686e-27 1.38132e-23 -3.81599e-26 -3.90347e-24 5.25457e-24
          -1.16481e-24 1.42151e-24 1.73854e-24 -3.49254e-24 5.22128e-28 -1.91399e-24 -2.70815e-24 -4.60343e-24 2.84208e-27 2.10752e-25 4.43367e-25 -2.06639e-28
          -3.10156e-26 -6.81931e-24 1.79294e-24 0 0 2.33718e-25 2.99872e-24 -3.95233e-25 3.56958e-24 0 9.80683e-25 0
          -2.72287e-25 4.30427e-25 -1.98538e-28 6.75748e-26 -6.19522e-24 6.39978e-28 3.49812e-28 3.74536e-28 3.24066e-24 2.09388e-28 -9.58505e-25 -1.65399e-24
          1.97691e-30 7.44059e-25 4.72241e-28 -4.46094e-26 1.38936e-24 -7.89836e-24 0 -8.17932e-24 0 5.4183e-30 2.39671e-24 -2.96479e-24
          -1.33955e-24 5.90117e-29 1.0333e-24 0 2.87311e-24 0 3.16416e-25 1.36112e-24 3.83283e-24 8.7972e-26 -5.01155e-24 -4.30348e-24
          -1.65758e-24 1.39902e-25 3.95883e-26 1.34773e-28 -1.36842e-24 -8.16739e-25 3.39123e-24 -1.75072e-24 1.89502e-24 -1.53697e-24 6.44095e-25 6.67e-24
          -5.63378e-26 -3.45371e-24 7.95174e-24 4.26163e-24 -2.56438e-24 5.54309e-26 7.11084e-25 -2.1888e-28 8.02453e-25 2.81276e-28 -3.08759e-24 6.70679e-25
          -1.40079e-24 2.42147e-25 -2.06166e-24 -9.42864e-26 -4.46591e-24 -4.01984e-24 7.33259e-24 2.08793e-25 2.74241e-24 8.32228e-25 -2.76493e-25 -6.64233e-25
          -8.16655e-25 4.90108e-25 0 -3.18556e-26 -9.51913e-25 3.46351e-24 -6.08807e-24 6.08971e-24 -4.42085e-24 9.1742e-28 0 0
          1.85698e-25 -4.24287e-28 1.06298e-24 -9.25507e-25 -9.74718e-25 8.97574e-25 -1.50695e-24 -6.08678e-25 -1.01525e-24 1.76433e-26 4.24965e-25 -2.89156e-24
          1.04086e-23 -1.97663e-25 -4.99152e-24 3.58121e-25 7.23549e-25 5.09614e-29 -6.45784e-25 -3.04501e-28 -3.69528e-28 9.0594e-26 -2.19657e-24 3.87241e-25
          -9.78814e-26 7.89721e-24 -3.27779e-24 0 -2.10793e-25 -6.59254e-25 5.08467e-24 -5.91081e-25 0 -3.63908e-25 -3.47073e-28 -2.96237e-25
          5.01856e-25 -9.89304e-25 -1.67061e-24 -2.70597e-25 -2.09624e-24 8.17634e-25 -2.26549e-23 0 2.26494e-23 -1.65986e-23 1.37037e-23 3.44595e-25
        </DataArray>
        <DataArray type="Float32" Name="velocity[2]" NumberOfComponents="1" format="ascii">
          -1.90277e-10 7.46493e-09 -5.54127e-09 -8.32175e-09 -3.51823e-09 -3.75671e-09 -3.82584e-09 -3.30374e-09 -3.40351e-09 -3.37717e-09 -3.08752e-09 -3.01471e-09
          -2.5712e-09 -1.97168e-09 -1.31205e-09 -1.11668e-09 2.79378e-08 -4.74476e-09 -1.65065e-08 -2.07103e-09 -2.41367e-09 -2.89006e-09 -3.2181e-09 -4.03461e-09
          -4.17592e-09 -3.45739e-09 -4.7065e-09 -3.16127e-09 -1.56863e-09 -1.7559e-09 -4.02427e-09 4.61644e-08 -1.55589e-09 -1.78218e-08 -4.29057e-09 -4.19027e-09
          -4.20211e-09 -4.49568e-09 -5.67028e-09 -5.73887e-09 -4.06487e-09 -8.2496e-09 -3.61783e-09 -2.04317e-09 -2.3343e-09 -5.8714e-09 4.91549e-08 -2.81472e-10
          -8.38538e-09 -7.0825e-09 -8.85046e-09 -1.03801e-08 -8.91088e-09 -7.18171e-09 -6.8452e-09 -3.7932e-09 -1.26625e-08 -2.53327e-09 -2.25513e-09 -3.00966e-09
          -8.26283e-09 1.32839e-08 1.05114e-09 -1.34874e-08 -5.44559e-09 -1.08311e-08 -1.30643e-08 -1.18196e-08 -6.24099e-09 -8.07652e-09 -5.56904e-09 -2.08189e-08
          -1.06811e-09 -1.4745e-09 -3.27547e-09 -2.33148e-08 -2.96432e-08 -1.74064e-09 -2.04275e-08 -7.68174e-09 -2.06616e-08 -1.35779e-08 -1.81556e-08 -5.93537e-09
          -4.51945e-09 -7.94075e-10 -2.20229e-08 -6.95569e-10 -1.14325e-09 -3.49593e-09 -2.51305e-08 -2.76169e-08 -1.41357e-09 -7.93858e-09 -5.92558e-09 -3.04672e-08
          -1.08143e-08 -2.7682e-08 -1.96882e-09 -6.57301e-10 -1.43293e-09 -2.11367e-08 -5.7067e-10 -9.7284e-10 -3.61324e-09 -2.33526e-08 -2.60649e-08 -1.68154e-09
          -2.28921e-09 -3.24414e-09 -3.42116e-08 -6.60587e-09 -3.97205e-08 -1.28615e-09 -7.25826e-10 -2.50781e-09 -2.15678e-08 -7.42058e-10 -1.26831e-09 -4.02513e-09
          -2.12979e-08 -2.40432e-08 -1.81433e-09 -9.5203e-10 -2.37674e-09 -3.5479e-08 -3.25007e-09 -5.04774e-08 -6.40403e-10 -3.72723e-10 -3.2762e-09 -1.92806e-08
          -7.21528e-10 -1.18015e-09 -4.36249e-09 -1.76091e-08 -2.34767e-08 -4.47044e-09 -1.5888e-09 -2.2774e-09 -3.62322e-08 -2.25602e-09 -6.17472e-08 -4.40205e-10
          -2.45553e-10 -5.47779e-09 -1.51193e-08 -9.06048e-10 -1.17011e-09 -4.68679e-09 -1.09533e-08 -1.90926e-08 -8.97166e-09 -1.99882e-09 -2.27757e-09 -3.65755e-08
          -1.28971e-09 -7.23525e-08 -3.5005e-10 -4.47952e-10 -6.61621e-09 -1.0904e-08 -1.67988e-09 -1.4004e-09 -4.68834e-09 -6.16144e-09 -1.19446e-08 -1.04734e-08
          -1.62091e-09 -2.35734e-09 -3.72796e-08 -9.39317e-10 -7.90063e-08 -2.17488e-09 -6.1318e-10 -6.11576e-09 -7.2964e-09 -2.84026e-09 -1.86527e-09 -4.87845e-09
          -5.19957e-09 -1.00839e-08 -7.80649e-09 -1.41568e-09 -2.94363e-09 -3.59615e-08 -2.04887e-09 -8.08711e-08 -7.99018e-09 -9.20499e-10 -4.66728e-09 -4.54336e-09
          -5.42873e-09 -2.62883e-09 -4.76265e-09 -5.71959e-09 -1.17856e-08 -4.68573e-09 -1.06207e-09 -3.51826e-09 -3.24956e-08 -9.46123e-10 -7.48424e-08 -1.35739e-08
          -2.28595e-09 -3.07972e-09 -1.86401e-09 -5.99967e-09 -4.07941e-09 -4.14958e-09 -6.86646e-09 -1.11119e-08 -2.8493e-09 -1.091e-09 -4.50197e-09 -3.16622e-08
          -6.10575e-10 -6.68204e-08 -1.60195e-08 -4.16522e-09 -2.70744e-09 -1.39505e-09 -5.38931e-09 -5.8713e-09 -3.49046e-09 -8.80724e-09 -9.18356e-09 -1.681e-09
          -1.19378e-09 -5.4851e-09 -3.12072e-08 -8.18058e-10 -5.73651e-08 -1.80249e-08 -7.01993e-09 -3.61047e-09 -3.29471e-09 -7.42805e-09 -9.1994e-09 -2.72126e-09
          -9.63213e-09 -7.60067e-09 -1.09884e-09 -1.24081e-09 -7.12024e-09 -2.73394e-08 -1.86092e-09 -4.61345e-08 -1.83183e-08 -9.73854e-09 -2.60366e-09 -2.9057e-09
          -7.05225e-09 -1.41936e-08 -2.0343e-09 -9.48926e-09 -6.20725e-09 -9.15635e-10 -1.30127e-09 -1.07677e-08 -2.02003e-08 -2.71618e-09 -3.65508e-08 -1.99768e-08
          -1.33552e-08 -2.36208e-09 -2.5185e-09 -4.76584e-09 -1.77365e-08 -1.6339e-09 -8.70516e-09 -4.98094e-09 -1.22653e-09 -1.16588e-09 -1.36153e-08 -1.35307e-08
          -2.81572e-09 -2.67798e-08 -2.04597e-08 -2.04597e-08 -2.43468e-09 -2.67197e-09 -5.58084e-09 -2.04826e-08 -1.806e-09 -7.24316e-09 -3.43154e-09 -1.00777e-09
          -9.62804e-10 -1.45853e-08 -8.40059e-09 -2.66932e-09 -2.00872e-08 -1.52196e-08 -3.40595e-08 -2.46327e-09 -2.49685e-09 -6.83157e-09 -2.17386e-08 -2.27397e-09
          -5.66852e-09 -2.73408e-09 -1.17017e-09 -9.41587e-10 -1.40163e-08 -5.47088e-09 -2.60078e-09 -1.61476e-08 -7.58411e-09 -4.45586e-08 -2.70797e-09 -3.09925e-09
          -8.3756e-09 -2.29926e-08 -2.53557e-09 -3.73853e-09 -1.85273e-09 -1.30059e-09 -1.07164e-09 -1.10736e-08 -4.82536e-09 -2.8871e-09 -1.54404e-08 -4.81359e-09
          -4.6784e-08 -3.44385e-09 -4.70359e-09 -9.38721e-09 -2.46353e-08 -3.59757e-09 -1.83549e-09 -9.95278e-10 -9.17274e-10 -9.85644e-10 -6.42777e-09 -4.42626e-09
          -3.10991e-09 -1.65731e-08 -4.65934e-09 -4.19005e-08 -5.70614e-09 -8.12432e-09 -1.3021e-08 -2.61207e-08 -4.54459e-09 -5.68649e-10 -4.22369e-10 -3.13483e-10
          -3.14179e-10 -1.78615e-09 -1.90571e-09 -1.55708e-09 -9.59876e-09 -4.81833e-09 -2.4377e-08 -1.04468e-08 -9.14696e-09 -1.04247e-08 -1.45322e-08 -2.43972e-09
        </DataArray>
        <DataArray type="Float32" Name="z[0]" NumberOfComponents="1" format="ascii">
          0.150578 0.150579 0.15058 0.150582 0.150582 0.150583 0.150584 0.150585 0.150585 0.150586 0.150587 0.150588
          0.150589 0.150591 0.150596 0.150581 0.150582 0.150583 0.150585 0.150586 0.150587 0.150587 0.150588 0.150588
          0.150589 0.15059 0.150591 0.150593 0.150595 0.150599 0.150584 0.150585 0.150587 0.150588 0.150589 0.15059
          0.150591 0.150625 0.150592 0.150593 0.150593 0.150595 0.150596 0.150598 0.150602 0.150588 0.150589 0.15059
          0.150591 0.158777 0.224911 0.278642 0.358826 0.150595 0.150596 0.150597 0.150598 0.150599 0.150601 0.150605
          0.150591 0.150592 0.194933 0.422514 0.42804 0.437863 0.415989 0.398592 0.150598 0.150599 0.1506 0.150601
          0.150602 0.150604 0.150609 0.150594 0.150595 0.198999 0.454729 0.468138 0.470524 0.456216 0.442693 0.150668