<?xml version="1.0"?>
<VTKFile type="UnstructuredGrid" version="0.1" byte_order="LittleEndian">
  <UnstructuredGrid>
    <Piece NumberOfCells="360" NumberOfPoints="800">
      <CellData Scalars="pressure[0]">
        <DataArray type="Float32" Name="pressure[0]" NumberOfComponents="1" format="ascii">
          2.10074e+07 2.1022e+07 2.15417e+07 2.20861e+07 2.24513e+07 2.2882e+07 2.30194e+07 2.30699e+07 2.31313e+07 2.32006e+07 2.34078e+07 2.37491e+07
          2.40026e+07 2.46584e+07 2.542e+07 2.10515e+07 2.1066e+07 2.16408e+07 2.22103e+07 2.26143e+07 2.30572e+07 2.31583e+07 2.31982e+07 2.3262e+07
          2.33419e+07 2.36326e+07 2.39783e+07 2.41817e+07 2.48498e+07 2.5587e+07 2.10962e+07 2.11101e+07 2.17067e+07 2.23504e+07 2.27037e+07 2.31164e+07
          2.32388e+07 2.32988e+07 2.33839e+07 2.34978e+07 2.38937e+07 2.4289e+07 2.44856e+07 2.50976e+07 2.57999e+07 2.11442e+07 2.11697e+07 2.15677e+07
          2.2483e+07 2.28162e+07 2.32039e+07 2.33148e+07 2.33688e+07 2.35086e+07 2.36983e+07 2.42316e+07 2.46748e+07 2.48633e+07 2.53935e+07 2.60664e+07
          2.12601e+07 2.12843e+07 1.97907e+07 2.25819e+07 2.29906e+07 2.33865e+07 2.34554e+07 2.34915e+07 2.37356e+07 2.41123e+07 2.46344e+07 2.50411e+07
          2.52348e+07 2.57294e+07 2.63284e+07 2.14603e+07 2.15032e+07 2.20382e+07 2.3068e+07 2.33685e+07 2.3627e+07 2.36726e+07 2.37348e+07 2.40686e+07
          2.45822e+07 2.51056e+07 2.53739e+07 2.55815e+07 2.60674e+07 2.66229e+07 2.17173e+07 2.17673e+07 2.26838e+07 2.35607e+07 2.37666e+07 2.4019e+07
          2.41244e+07 2.42221e+07 2.44679e+07 2.50682e+07 2.55538e+07 2.56686e+07 2.58653e+07 2.64337e+07 2.70351e+07 2.20884e+07 2.21422e+07 2.32095e+07
          2.40065e+07 2.42071e+07 2.46159e+07 2.46866e+07 2.47597e+07 2.49866e+07 2.55013e+07 2.58503e+07 2.59352e+07 2.61977e+07 2.68128e+07 2.76065e+07
          2.26317e+07 2.26946e+07 2.36694e+07 2.44826e+07 2.47438e+07 2.5118e+07 2.52556e+07 2.53976e+07 2.56056e+07 2.59728e+07 2.61595e+07 2.61934e+07
          2.64607e+07 2.72423e+07 2.81778e+07 2.32915e+07 2.33977e+07 2.40336e+07 2.47345e+07 2.52343e+07 2.5553e+07 2.5854e+07 2.61478e+07 2.62715e+07
          2.64433e+07 2.65354e+07 2.65654e+07 2.68446e+07 2.76714e+07 2.85159e+07 2.42496e+07 2.43916e+07 2.46664e+07 2.51995e+07 2.5648e+07 2.58725e+07
          2.63353e+07 2.67615e+07 2.68633e+07 2.68982e+07 2.69197e+07 2.6959e+07 2.7188e+07 2.80157e+07 2.87641e+07 2.49535e+07 2.50331e+07 2.51792e+07
          2.56031e+07 2.59961e+07 2.61872e+07 2.68122e+07 2.73398e+07 2.73706e+07 2.73462e+07 2.73187e+07 2.73456e+07 2.75533e+07 2.83515e+07 2.91923e+07
          2.5458e+07 2.55119e+07 2.55878e+07 2.5873e+07 2.66456e+07 2.67604e+07 2.74177e+07 2.79893e+07 2.80756e+07 2.7823e+07 2.77921e+07 2.79828e+07
          2.86926e+07 2.9765e+07 2.99758e+07 2.58672e+07 2.59285e+07 2.60831e+07 2.65002e+07 2.75895e+07 2.76975e+07 2.82331e+07 2.86515e+07 2.87194e+07
          2.877e+07 2.8784e+07 2.93052e+07 3.00932e+07 3.07021e+07 3.04248e+07 2.67726e+07 2.67762e+07 2.69668e+07 2.75093e+07 2.84774e+07 2.85642e+07
          2.89213e+07 2.91823e+07 2.92347e+07 2.93154e+07 2.94728e+07 3.03131e+07 3.0972e+07 3.11541e+07 3.09636e+07 2.75369e+07 2.75649e+07 2.77668e+07
          2.87593e+07 2.90451e+07 2.91045e+07 2.9356e+07 2.95211e+07 2.95718e+07 2.96497e+07 2.99645e+07 3.07581e+07 3.13482e+07 3.16743e+07 3.14707e+07
          2.82993e+07 2.83411e+07 2.84587e+07 2.9326e+07 2.94873e+07 2.95263e+07 2.96513e+07 2.97624e+07 2.98114e+07 2.98764e+07 3.02994e+07 3.12428e+07
          3.1876e+07 3.21935e+07 3.19335e+07 2.89166e+07 2.8975e+07 2.93393e+07 2.96474e+07 2.97829e+07 2.98272e+07 2.99233e+07 3.00049e+07 3.0056e+07
          3.0115e+07 3.06363e+07 3.1633e+07 3.22796e+07 3.25377e+07 3.23945e+07 2.92388e+07 2.93054e+07 2.95303e+07 2.98653e+07 3.00384e+07 3.00862e+07
          3.01695e+07 3.02406e+07 3.02872e+07 3.03438e+07 3.09172e+07 3.20189e+07 3.2681e+07 3.28719e+07 3.30353e+07 2.94954e+07 2.95544e+07 2.97589e+07
          3.00914e+07 3.02608e+07 3.03092e+07 3.03896e+07 3.04565e+07 3.05035e+07 3.0567e+07 3.11348e+07 3.2349e+07 3.30768e+07 3.32247e+07 3.36442e+07
          2.97096e+07 2.9777e+07 2.99397e+07 3.0247e+07 3.04579e+07 3.05116e+07 3.05983e+07 3.06691e+07 3.07334e+07 3.08149e+07 3.16192e+07 3.29179e+07
          3.34435e+07 3.36003e+07 3.41171e+07 2.99143e+07 2.99845e+07 3.01292e+07 3.04296e+07 3.06447e+07 3.07043e+07 3.08053e+07 3.08869e+07 3.09716e+07
          3.10662e+07 3.2153e+07 3.35021e+07 3.38239e+07 3.40167e+07 3.45776e+07 3.01001e+07 3.01639e+07 3.03392e+07 3.06562e+07 3.08316e+07 3.09007e+07
          3.10203e+07 3.11155e+07 3.12261e+07 3.13452e+07 3.26043e+07 3.39829e+07 3.42579e+07 3.44749e+07 3.49057e+07 3.0269e+07 3.03295e+07 3.04828e+07
          3.08009e+07 3.10268e+07 3.10978e+07 3.1233e+07 3.13443e+07 3.14804e+07 3.16424e+07 3.31037e+07 3.44001e+07 3.47058e+07 3.49014e+07 3.5195e+07
        </DataArray>
        <DataArray type="Float32" Name="pressure[1]" NumberOfComponents="1" format="ascii">
          2.10074e+07 2.1022e+07 2.15417e+07 2.20861e+07 2.24513e+07 2.2882e+07 2.30194e+07 2.30699e+07 2.31313e+07 2.32006e+07 2.34078e+07 2.37491e+07
          2.40026e+07 2.46584e+07 2.542e+07 2.10515e+07 2.1066e+07 2.16408e+07 2.22103e+07 2.26143e+07 2.30572e+07 2.31583e+07 2.31982e+07 2.3262e+07
          2.33419e+07 2.36326e+07 2.39783e+07 2.41817e+07 2.48498e+07 2.5587e+07 2.10962e+07 2.11101e+07 2.17067e+07 2.23504e+07 2.27037e+07 2.31164e+07
          2.32388e+07 2.32988e+07 2.33839e+07 2.34978e+07 2.38937e+07 2.4289e+07 2.44856e+07 2.50976e+07 2.57999e+07 2.11442e+07 2.11697e+07 2.15677e+07
          2.2483e+07 2.28162e+07 2.32039e+07 2.33148e+07 2.33688e+07 2.35086e+07 2.36983e+07 2.42316e+07 2.46748e+07 2.48633e+07 2.53935e+07 2.60664e+07
          2.12601e+07 2.12843e+07 1.97907e+07 2.25819e+07 2.29906e+07 2.33865e+07 2.34554e+07 2.34915e+07 2.37356e+07 2.41123e+07 2.46344e+07 2.50411e+07
          2.52348e+07 2.57294e+07 2.63284e+07 2.14603e+07 2.15032e+07 2.20382e+07 2.3068e+07 2.33685e+07 2.3627e+07 2.36726e+07 2.37348e+07 2.40686e+07
          2.45822e+07 2.51056e+07 2.53739e+07 2.55815e+07 2.60674e+07 2.66229e+07 2.17173e+07 2.17673e+07 2.26838e+07 2.35607e+07 2.37666e+07 2.4019e+07
          2.41244e+07 2.42221e+07 2.44679e+07 2.50682e+07 2.55538e+07 2.56686e+07 2.58653e+07 2.64337e+07 2.70351e+07 2.20884e+07 2.21422e+07 2.32095e+07
          2.40065e+07 2.42071e+07 2.46159e+07 2.46866e+07 2.47597e+07 2.49866e+07 2.55013e+07 2.58503e+07 2.59352e+07 2.61977e+07 2.68128e+07 2.76065e+07
          2.26317e+07 2.26946e+07 2.36694e+07 2.44826e+07 2.47438e+07 2.5118e+07 2.52556e+07 2.53976e+07 2.56056e+07 2.59728e+07 2.61595e+07 2.61934e+07
          2.64607e+07 2.72423e+07 2.81778e+07 2.32915e+07 2.33977e+07 2.40336e+07 2.47345e+07 2.52343e+07 2.5553e+07 2.5854e+07 2.61478e+07 2.62715e+07
          2.64433e+07 2.65354e+07 2.65654e+07 2.68446e+07 2.76714e+07 2.85159e+07 2.42496e+07 2.43916e+07 2.46664e+07 2.51995e+07 2.5648e+07 2.58725e+07
          2.63353e+07 2.67615e+07 2.68633e+07 2.68982e+07 2.69197e+07 2.6959e+07 2.7188e+07 2.80157e+07 2.87641e+07 2.49535e+07 2.50331e+07 2.51792e+07
          2.56031e+07 2.59961e+07 2.61872e+07 2.68122e+07 2.73398e+07 2.73706e+07 2.73462e+07 2.73187e+07 2.73456e+07 2.75533e+07 2.83515e+07 2.91923e+07
          2.5458e+07 2.55119e+07 2.55878e+07 2.5873e+07 2.66456e+07 2.67604e+07 2.74177e+07 2.79893e+07 2.80756e+07 2.7823e+07 2.77921e+07 2.79828e+07
          2.86926e+07 2.9765e+07 2.99758e+07 2.58672e+07 2.59285e+07 2.60831e+07 2.65002e+07 2.75895e+07 2.76975e+07 2.82331e+07 2.86515e+07 2.87194e+07
          2.877e+07 2.8784e+07 2.93052e+07 3.00932e+07 3.07021e+07 3.04248e+07 2.67726e+07 2.67762e+07 2.69668e+07 2.75093e+07 2.84774e+07 2.85642e+07
          2.89213e+07 2.91823e+07 2.92347e+07 2.93154e+07 2.94728e+07 3.03131e+07 3.0972e+07 3.11541e+07 3.09636e+07 2.75369e+07 2.75649e+07 2.77668e+07
          2.87593e+07 2.90451e+07 2.91045e+07 2.9356e+07 2.95211e+07 2.95718e+07 2.96497e+07 2.99645e+07 3.07581e+07 3.13482e+07 3.16743e+07 3.14707e+07
          2.82993e+07 2.83411e+07 2.84587e+07 2.9326e+07 2.94873e+07 2.95263e+07 2.96513e+07 2.97624e+07 2.98114e+07 2.98764e+07 3.02994e+07 3.12428e+07
          3.1876e+07 3.21935e+07 3.19335e+07 2.89166e+07 2.8975e+07 2.93393e+07 2.96474e+07 2.97829e+07 2.98272e+07 2.99233e+07 3.00049e+07 3.0056e+07
          3.0115e+07 3.06363e+07 3.1633e+07 3.22796e+07 3.25377e+07 3.23945e+07 2.92388e+07 2.93054e+07 2.95303e+07 2.98653e+07 3.00384e+07 3.00862e+07
          3.01695e+07 3.02406e+07 3.02872e+07 3.03438e+07 3.09172e+07 3.20189e+07 3.2681e+07 3.28719e+07 3.30353e+07 2.94954e+07 2.95544e+07 2.97589e+07
          3.00914e+07 3.02608e+07 3.03092e+07 3.03896e+07 3.04565e+07 3.05035e+07 3.0567e+07 3.11348e+07 3.2349e+07 3.30768e+07 3.32247e+07 3.36442e+07
          2.97096e+07 2.9777e+07 2.99397e+07 3.0247e+07 3.04579e+07 3.05116e+07 3.05983e+07 3.06691e+07 3.07334e+07 3.08149e+07 3.16192e+07 3.29179e+07
          3.34435e+07 3.36003e+07 3.41171e+07 2.99143e+07 2.99845e+07 3.01292e+07 3.04296e+07 3.06447e+07 3.07043e+07 3.08053e+07 3.08869e+07 3.09716e+07
          3.10662e+07 3.2153e+07 3.35021e+07 3.38239e+07 3.40167e+07 3.45776e+07 3.01001e+07 3.01639e+07 3.03392e+07 3.06562e+07 3.08316e+07 3.09007e+07
          3.10203e+07 3.11155e+07 3.12261e+07 3.13452e+07 3.26043e+07 3.39829e+07 3.42579e+07 3.44749e+07 3.49057e+07 3.0269e+07 3.03295e+07 3.04828e+07
          3.08009e+07 3.10268e+07 3.10978e+07 3.1233e+07 3.13443e+07 3.14804e+07 3.16424e+07 3.31037e+07 3.44001e+07 3.47058e+07 3.49014e+07 3.5195e+07
        </DataArray>
        <DataArray type="Float32" Name="pressure[2]" NumberOfComponents="1" format="ascii">
          2.10074e+07 2.1022e+07 2.15417e+07 2.20861e+07 2.24513e+07 2.2882e+07 2.30194e+07 2.30699e+07 2.31313e+07 2.32006e+07 2.34078e+07 2.37491e+07
          2.40026e+07 2.46584e+07 2.542e+07 2.10515e+07 2.1066e+07 2.16408e+07 2.22103e+07 2.26143e+07 2.30572e+07 2.31583e+07 2.31982e+07 2.3262e+07
          2.33419e+07 2.36326e+07 2.39783e+07 2.41817e+07 2.48498e+07 2.5587e+07 2.10962e+07 2.11101e+07 2.17067e+07 2.23504e+07 2.27037e+07 2.31164e+07
          2.32388e+07 2.32988e+07 2.33839e+07 2.34978e+07 2.38937e+07 2.4289e+07 2.44856e+07 2.50976e+07 2.57999e+07 2.11442e+07 2.11697e+07 2.15677e+07
          2.2483e+07 2.28162e+07 2.32039e+07 2.33148e+07 2.33688e+07 2.35086e+07 2.36983e+07 2.42316e+07 2.46748e+07 2.48633e+07 2.53935e+07 2.60664e+07
          2.12601e+07 2.12843e+07 1.97907e+07 2.25819e+07 2.29906e+07 2.33865e+07 2.34554e+07 2.34915e+07 2.37356e+07 2.41123e+07 2.46344e+07 2.50411e+07
          2.52348e+07 2.57294e+07 2.63284e+07 2.14603e+07 2.15032e+07 2.20382e+07 2.3068e+07 2.33685e+07 2.3627e+07 2.36726e+07 2.37348e+07 2.40686e+07
          2.45822e+07 2.51056e+07 2.53739e+07 2.55815e+07 2.60674e+07 2.66229e+07 2.17173e+07 2.17673e+07 2.26838e+07 2.35607e+07 2.37666e+07 2.4019e+07
          2.41244e+07 2.42221e+07 2.44679e+07 2.50682e+07 2.55538e+07 2.56686e+07 2.58653e+07 2.64337e+07 2.70351e+07 2.20884e+07 2.21422e+07 2.32095e+07
          2.40065e+07 2.42071e+07 2.46159e+07 2.46866e+07 2.47597e+07 2.49866e+07 2.55013e+07 2.58503e+07 2.59352e+07 2.61977e+07 2.68128e+07 2.76065e+07
          2.26317e+07 2.26946e+07 2.36694e+07 2.44826e+07 2.47438e+07 2.5118e+07 2.52556e+07 2.53976e+07 2.56056e+07 2.59728e+07 2.61595e+07 2.61934e+07
          2.64607e+07 2.72423e+07 2.81778e+07 2.32915e+07 2.33977e+07 2.40336e+07 2.47345e+07 2.52343e+07 2.5553e+07 2.5854e+07 2.61478e+07 2.62715e+07
          2.64433e+07 2.65354e+07 2.65654e+07 2.68446e+07 2.76714e+07 2.85159e+07 2.42496e+07 2.43916e+07 2.46664e+07 2.51995e+07 2.5648e+07 2.58725e+07
          2.63353e+07 2.67615e+07 2.68633e+07 2.68982e+07 2.69197e+07 2.6959e+07 2.7188e+07 2.80157e+07 2.87641e+07 2.49535e+07 2.50331e+07 2.51792e+07
          2.56031e+07 2.59961e+07 2.61872e+07 2.68122e+07 2.73398e+07 2.73706e+07 2.73462e+07 2.73187e+07 2.73456e+07 2.75533e+07 2.83515e+07 2.91923e+07
          2.5458e+07 2.55119e+07 2.55878e+07 2.5873e+07 2.66456e+07 2.67604e+07 2.74177e+07 2.79893e+07 2.80756e+07 2.7823e+07 2.77921e+07 2.79828e+07
          2.86926e+07 2.9765e+07 2.99758e+07 2.58672e+07 2.59285e+07 2.60831e+07 2.65002e+07 2.75895e+07 2.76975e+07 2.82331e+07 2.86515e+07 2.87194e+07
          2.877e+07 2.8784e+07 2.93052e+07 3.00932e+07 3.07021e+07 3.04248e+07 2.67726e+07 2.67762e+07 2.69668e+07 2.75093e+07 2.84774e+07 2.85642e+07
          2.89213e+07 2.91823e+07 2.92347e+07 2.93154e+07 2.94728e+07 3.03131e+07 3.0972e+07 3.11541e+07 3.09636e+07 2.75369e+07 2.75649e+07 2.77668e+07
          2.87593e+07 2.90451e+07 2.91045e+07 2.9356e+07 2.95211e+07 2.95718e+07 2.96497e+07 2.99645e+07 3.07581e+07 3.13482e+07 3.16743e+07 3.14707e+07
          2.82993e+07 2.83411e+07 2.84587e+07 2.9326e+07 2.94873e+07 2.95263e+07 2.96513e+07 2.97624e+07 2.98114e+07 2.98764e+07 3.02994e+07 3.12428e+07
          3.1876e+07 3.21935e+07 3.19335e+07 2.89166e+07 2.8975e+07 2.93393e+07 2.96474e+07 2.97829e+07 2.98272e+07 2.99233e+07 3.00049e+07 3.0056e+07
          3.0115e+07 3.06363e+07 3.1633e+07 3.22796e+07 3.25377e+07 3.23945e+07 2.92388e+07 2.93054e+07 2.95303e+07 2.98653e+07 3.00384e+07 3.00862e+07
          3.01695e+07 3.02406e+07 3.02872e+07 3.03438e+07 3.09172e+07 3.20189e+07 3.2681e+07 3.28719e+07 3.30353e+07 2.94954e+07 2.95544e+07 2.97589e+07
          3.00914e+07 3.02608e+07 3.03092e+07 3.03896e+07 3.04565e+07 3.05035e+07 3.0567e+07 3.11348e+07 3.2349e+07 3.30768e+07 3.32247e+07 3.36442e+07
          2.97096e+07 2.9777e+07 2.99397e+07 3.0247e+07 3.04579e+07 3.05116e+07 3.05983e+07 3.06691e+07 3.07334e+07 3.08149e+07 3.16192e+07 3.29179e+07
          3.34435e+07 3.36003e+07 3.41171e+07 2.99143e+07 2.99845e+07 3.01292e+07 3.04296e+07 3.06447e+07 3.07043e+07 3.08053e+07 3.08869e+07 3.09716e+07
          3.10662e+07 3.2153e+07 3.35021e+07 3.38239e+07 3.40167e+07 3.45776e+07 3.01001e+07 3.01639e+07 3.03392e+07 3.06562e+07 3.08316e+07 3.09007e+07
          3.10203e+07 3.11155e+07 3.12261e+07 3.13452e+07 3.26043e+07 3.39829e+07 3.42579e+07 3.44749e+07 3.49057e+07 3.0269e+07 3.03295e+07 3.04828e+07
          3.08009e+07 3.10268e+07 3.10978e+07 3.1233e+07 3.13443e+07 3.14804e+07 3.16424e+07 3.31037e+07 3.44001e+07 3.47058e+07 3.49014e+07 3.5195e+07
        </DataArray>
        <DataArray type="Float32" Name="velocity[0]" NumberOfComponents="1" format="ascii">
          -8.27594e-10 3.07712e-08 2.72859e-10 6.06e-10 -2.24611e-10 -1.17588e-09 3.37813e-10 1.71699e-09 2.85378e-09 -4.30216e-11 -1.91096e-09 -2.71148e-09
          -1.79273e-09 -5.52548e-10 -2.72144e-09 -9.56502e-09 9.68343e-08 6.21311e-10 -4.60273e-09 2.24318e-10 2.30713e-09 1.03267e-08 7.05782e-09 6.70689e-09
          -1.54719e-09 -3.95925e-09 -1.14863e-08 -7.04253e-09 -1.78839e-09 -7.23184e-09 -5.48023e-08 1.90288e-07 1.25792e-09 1.93871e-08 9.20535e-10 6.80596e-09
          1.89815e-08 1.46538e-08 5.30413e-09 -4.8944e-09 -4.74179e-09 -2.87393e-08 -1.0118e-08 -3.90911e-09 -1.08603e-08 -5.17598e-08 1.99804e-07 6.61864e-09
          9.35757e-08 -5.94663e-10 -1.71241e-09 8.91315e-09 1.32668e-08 -1.65059e-09 -1.231e-08 -6.18624e-09 -4.98974e-08 -7.19179e-09 -5.71556e-09 -1.48376e-08
          -8.87452e-08 -4.43952e-08 -2.34858e-10 -9.86382e-08 -1.25241e-08 -3.78342e-08 -3.08055e-08 -1.05781e-08 -6.29634e-09 -1.33352e-08 -8.81881e-09 -8.58534e-08
          -3.66082e-09 -5.24428e-09 -1.83014e-08 -1.75472e-07 -2.18256e-07 -7.22074e-09 -2.32683e-07 -2.90357e-08 -1.32836e-07 -5.28005e-08 -6.52412e-08 -6.52071e-09
          -6.48613e-09 -1.37675e-08 -1.26333e-07 -2.17848e-09 -4.17891e-09 -2.06257e-08 -1.77527e-07 -1.90793e-07 -2.4457e-09 -8.25372e-08 -3.50534e-08 -2.10638e-07
          -4.7386e-08 -1.52792e-07 -7.50109e-09 -3.43093e-09 -1.73654e-08 -1.54359e-07 -1.90285e-09 -4.11196e-09 -2.22327e-08 -1.62748e-07 -1.76766e-07 -2.70467e-09
          -2.38438e-08 -3.61853e-08 -2.19516e-07 -3.47266e-08 -2.43256e-07 -7.60765e-09 -2.89966e-09 -1.95492e-08 -1.72831e-07 -1.5819e-09 -4.21414e-09 -2.40474e-08
          -1.47308e-07 -1.60285e-07 -3.19104e-09 -7.23675e-09 -3.49736e-08 -2.20851e-07 -1.27093e-08 -3.15543e-07 -6.12852e-09 -3.18969e-09 -3.23099e-08 -1.66116e-07
          -1.50142e-09 -3.76382e-09 -2.64484e-08 -1.18799e-07 -1.44928e-07 -1.04615e-08 -2.35274e-09 -3.03629e-08 -2.22121e-07 -4.24141e-09 -3.8528e-07 -5.70218e-09
          -3.66862e-09 -5.44547e-08 -1.3866e-07 -2.31745e-09 -3.04863e-09 -2.88677e-08 -8.61917e-08 -1.33196e-07 -2.00679e-08 -2.13343e-09 -2.779e-08 -2.22952e-07
          -1.4443e-09 -4.39075e-07 -1.03748e-08 -5.15931e-09 -6.95103e-08 -1.08034e-07 -5.18189e-09 -3.16843e-09 -3.11141e-08 -6.63091e-08 -1.22299e-07 -2.41654e-08
          -9.5456e-10 -2.21527e-08 -2.36242e-07 -1.20016e-09 -4.77893e-07 -1.96093e-08 -9.17836e-09 -7.4673e-08 -6.48592e-08 -1.22287e-08 -6.56673e-09 -3.31192e-08
          -5.62359e-08 -1.14439e-07 -2.33358e-08 -2.58373e-09 -1.73087e-08 -2.30932e-07 -1.74989e-09 -5.10139e-07 -4.70702e-08 -1.17921e-08 -5.50289e-08 -2.42438e-08
          -2.75395e-08 -1.4209e-08 -3.40943e-08 -4.84392e-08 -1.10142e-07 -2.01686e-08 -7.54965e-09 -2.05438e-08 -2.11779e-07 -1.82041e-09 -5.00782e-07 -8.46173e-08
          -1.58757e-08 -2.54416e-08 -8.07018e-09 -3.54208e-08 -2.69557e-08 -3.26439e-08 -4.90879e-08 -9.21949e-08 -1.59885e-08 -7.97582e-09 -2.82794e-08 -2.14131e-07
          -1.3177e-09 -4.61723e-07 -1.03036e-07 -2.4045e-08 -1.53039e-08 -4.02141e-09 -3.23835e-08 -4.24748e-08 -2.90469e-08 -5.82302e-08 -6.55599e-08 -1.22311e-08
          -4.84373e-09 -3.58584e-08 -2.17731e-07 -1.68121e-09 -3.9439e-07 -1.08272e-07 -3.27381e-08 -9.06027e-09 -5.26121e-09 -3.64897e-08 -6.27873e-08 -2.4312e-08
          -6.21402e-08 -4.86281e-08 -8.57959e-09 -5.35263e-09 -5.06004e-08 -1.92072e-07 -3.22158e-09 -3.12777e-07 -1.09477e-07 -5.09796e-08 -3.6918e-09 -5.13616e-09
          -2.99608e-08 -9.33947e-08 -1.92333e-08 -6.19612e-08 -3.87806e-08 -3.03001e-09 -3.9655e-09 -7.53142e-08 -1.38887e-07 -4.89511e-09 -2.3936e-07 -1.1862e-07
          -7.78256e-08 -2.61628e-09 -3.46929e-09 -1.94882e-08 -1.22189e-07 -1.4971e-08 -5.61903e-08 -2.78074e-08 -1.55171e-09 -1.4417e-09 -9.30076e-08 -8.82775e-08
          -5.15263e-09 -1.71433e-07 -1.189e-07 -1.22762e-07 -1.52266e-09 -2.86122e-09 -2.55193e-08 -1.39745e-07 -1.30863e-08 -4.67774e-08 -1.87699e-08 -1.5226e-09
          -6.5456e-10 -9.89406e-08 -5.01617e-08 -4.30091e-09 -1.2568e-07 -7.70319e-08 -2.13166e-07 -2.66904e-09 -4.07609e-09 -3.79507e-08 -1.48266e-07 -1.4072e-08
          -3.58074e-08 -1.26415e-08 -1.36962e-09 -1.702e-10 -9.19672e-08 -2.62169e-08 -3.68901e-09 -9.89727e-08 -3.22645e-08 -2.95893e-07 -4.19041e-09 -7.51334e-09
          -4.61614e-08 -1.55007e-07 -1.61602e-08 -2.25401e-08 -6.45422e-09 -2.15238e-09 -8.32134e-10 -6.79728e-08 -1.78249e-08 -3.60735e-09 -9.34894e-08 -1.75132e-08
          -3.12813e-07 -3.82197e-09 -1.44274e-08 -5.05388e-08 -1.61846e-07 -2.00497e-08 -1.05284e-08 -2.58351e-09 -9.70542e-10 -5.50681e-10 -3.39296e-08 -1.33026e-08
          -2.96105e-09 -9.86576e-08 -1.4115e-08 -2.69484e-07 -5.30239e-09 -2.48719e-08 -6.63176e-08 -1.68669e-07 -2.61744e-08 -2.79063e-09 -5.8249e-10 2.12601e-10
          7.81055e-11 -8.00146e-09 -5.07579e-09 -1.08393e-09 -5.02745e-08 -6.57405e-09 -1.16499e-07 -3.49835e-09 -1.50891e-08 -3.96108e-08 -8.6699e-08 -1.46959e-08
        </DataArray>
        <DataArray type="Float32" Name="velocity[1]" NumberOfComponents="1" format="ascii">
          1.28618e-25 4.83698e-24 6.33829e-26 9.41795e-26 3.49073e-26 0 -5.25001e-26 -2.30494e-25 5.00992e-26 5.77525e-24 -3.7506e-24 4.53656e-26
          2.46708e-24 -9.91623e-25 4.2257e-25 1.22928e-24 5.4504e-24 5.9221e-26 -9.03678e-25 -1.76312e-25 7.186e-24 1.3124e-24 4.14794e-25 -6.78615e-24
          -1.51997e-25 0 -4.44353e-26 5.30044e-26 2.95093e-28 2.78024e-25 5.80113e-24 -7.74054e-24 -1.45757e-24 4.63198e-24 -2.13931e-25 0
          7.92457e-26 -6.65959e-25 -3.73313e-25 0 7.13243e-24 -1.11274e-23 0 1.14517e-24 -2.86699e-25 -1.25307e-23 1.84999e-23 -1.43726e-24
          -8.72785e-24 3.3947e-25 9.06174e-24 -2.19158e-23 2.41586e-23 -4.29848e-24 1.20975e-24 3.58461e-24 -4.71924e-24 3.18543e-24 -1.33063e-24 9.97107e-25
          -9.26884e-26 -6.07825e-23 5.67958e-24 9.7892e-24 -4.53995e-25 -4.69209e-24 1.74301e-25 -1.26901e-25 -2.43782e-25 -6.91372e-24 4.37119e-24 -8.07575e-24
          -2.79737e-28 1.30319e-25 -1.52517e-24 -1.26475e-25 6.74234e-24 -5.73082e-25 7.35148e-24 2.47493e-25 -1.11335e-23 0 -1.43213e-25 -1.90074e-25
          3.19758e-25 -4.84278e-25 5.75394e-24 -1.45985e-24 8.64466e-25 1.52413e-24 -9.76796e-25 1.11331e-24 0 7.82341e-24 2.03197e-25 -9.32039e-24
          2.78207e-25 2.60364e-26 -3.27368e-24 3.0241e-28 2.908e-28 -7.94573e-28 3.43341e-26 -2.47748e-28 -1.6803e-24 -1.75338e-25 1.30646e-23 1.257e-24
          3.40903e-24 -2.09881e-26 1.72755e-23 1.76694e-25 6.82568e-26 2.33289e-25 -2.73069e-26 -3.52283e-24 -1.28854e-23 -1.23369e-28 -3.68094e-25 1.96232e-24
          -1.42103e-24 -9.38561e-24 -4.65859e-26 -1.35923e-24 -4.38149e-25 3.48474e-24 0 0 -3.13794e-25 -3.1399e-28 8.32531e-25 3.62212e-24
          -2.63956e-28 6.06325e-26 -7.51605e-28 -1.08268e-23 1.41768e-24 1.62373e-24 -1.22496e-25 -2.90908e-24 3.59706e-24 -6.66072e-24 5.68356e-24 3.86083e-25
          -5.69816e-26 -3.30389e-25 3.44177e-24 -8.31409e-25 0 -2.14807e-24 4.09063e-24 9.98803e-26 3.81638e-25 -2.31648e-25 2.26658e-24 5.64695e-28
          -4.22784e-24 5.36914e-24 6.76997e-25 1.74305e-25 -1.31957e-25 8.03454e-24 1.75178e-24 -3.19548e-25 1.59774e-25 -4.546e-24 1.95717e-24 -2.51401e-25
          1.05214e-25 -2.86925e-24 -1.91888e-23 3.19704e-26 3.35472e-24 -2.90808e-24 -4.50004e-25 1.23699e-24 2.9039e-24 -1.90889e-24 1.04292e-24 -1.51409e-25
          4.19613e-24 9.0125e-24 0 -3.05505e-25 6.06503e-26 2.49105e-24 5.38445e-26 1.66341e-24 -3.51059e-24 2.16311e-28 -2.65713e-24 -9.30782e-25
          1.67525e-24 -7.39546e-25 -1.03439e-27 -8.59404e-25 -1.58199e-28 1.01427e-24 -9.32308e-25 1.07349e-27 1.58225e-23 -4.18353e-26 -3.11094e-24 5.5512e-24
          -2.08533e-25 2.65698e-24 2.33732e-24 -4.53518e-24 3.90995e-28 -2.42377e-24 -3.33405e-24 -5.98121e-24 -4.596e-30 8.19781e-25 7.59289e-25 5.45821e-28
          -3.56243e-26 -7.47577e-24 2.00985e-24 0 0 3.23418e-25 3.72344e-24 -4.87432e-25 4.51495e-24 0 1.77472e-24 0
          -3.33017e-25 4.19225e-25 3.54925e-28 9.21165e-26 -7.5088e-24 6.68183e-29 2.11007e-28 -6.22851e-29 4.05631e-24 1.2534e-28 -1.19545e-24 -2.08912e-24
          1.98539e-28 8.56642e-25 2.01281e-28 -1.66322e-25 1.87278e-24 -1.00186e-23 0 -1.03823e-23 0 -1.66545e-28 2.98603e-24 -3.69693e-24
          -1.67536e-24 1.20262e-28 1.30044e-24 0 3.35036e-24 0 4.99178e-25 1.75751e-24 4.81229e-24 1.12457e-25 -6.23477e-24 -5.40232e-24
          -2.09722e-24 1.75222e-25 5.0105e-26 8.09906e-29 -1.71504e-24 -1.02622e-24 4.00533e-24 -1.99665e-24 2.19541e-24 -1.81151e-24 7.81624e-25 8.5064e-24
          -7.24767e-26 -4.32167e-24 9.97125e-24 5.31574e-24 -3.19762e-24 6.95236e-26 8.89514e-25 -3.64394e-28 1.00754e-24 1.3877e-28 -3.62083e-24 7.84189e-25
          -1.66151e-24 2.80956e-25 -2.63102e-24 -1.19448e-25 -5.57831e-24 -5.04266e-24 9.16456e-24 2.60702e-25 3.42223e-24 1.04248e-24 -3.4392e-25 -8.35653e-25
          -9.63984e-25 5.80479e-25 0 -3.63265e-26 -1.22432e-24 4.28797e-24 -7.53919e-24 7.53966e-24 -5.50584e-24 9.83389e-28 0 0
          2.33627e-25 -6.19237e-28 1.33207e-24 -1.09791e-24 -1.15366e-24 1.0647e-24 -1.78874e-24 -8.89735e-25 -1.2781e-24 2.23743e-26 5.0935e-25 -3.59173e-24
          1.29708e-23 -2.47789e-25 -6.23256e-24 4.46283e-25 9.04374e-25 -1.73689e-30 -7.68614e-25 -1.82874e-28 -2.75922e-28 1.08987e-25 -2.78633e-24 4.90113e-25
          -1.2327e-25 9.80237e-24 -4.0758e-24 0 -2.63315e-25 -8.24372e-25 6.34516e-24 -7.35728e-25 0 -4.33994e-25 -2.35497e-28 -3.53761e-25
          6.00529e-25 -1.24314e-24 -2.06599e-24 -3.37463e-25 -2.64841e-24 1.02168e-24 -2.82864e-23 0 2.82859e-23 -2.07423e-23 1.71353e-23 4.30316e-25
        </DataArray>
        <DataArray type="Float32" Name="velocity[2]" NumberOfComponents="1" format="ascii">
          -8.72872e-11 4.02234e-09 -2.86478e-09 -2.79264e-09 -2.89717e-09 -2.9491e-09 -2.60486e-09 -2.39946e-09 -2.39044e-09 -3.0341e-09 -3.19873e-09 -3.01396e-09
          -2.52567e-09 -2.03712e-09 -1.38783e-09 -1.15279e-09 1.63893e-08 -2.30336e-09 -2.87432e-09 -1.71075e-09 -1.55289e-09 -5.8349e-10 -1.49681e-09 -1.68941e-09
          -3.10732e-09 -3.42188e-09 -4.33543e-09 -2.91768e-09 -1.62379e-09 -1.87233e-09 -7.16711e-09 3.56441e-08 -6.19792e-10 1.10034e-09 -3.56892e-09 -2.46396e-09
          -2.45211e-10 -1.06636e-09 -2.64568e-09 -4.17608e-09 -3.98074e-09 -7.45258e-09 -3.48439e-09 -2.1573e-09 -2.52909e-09 -1.18092e-08 3.2286e-08 2.70355e-10
          1.30407e-08 -5.60671e-09 -5.24926e-09 -2.69102e-09 -1.50787e-09 -3.67807e-09 -5.00191e-09 -3.59693e-09 -1.06189e-08 -2.6491e-09 -2.49645e-09 -3.32936e-09
          -1.04519e-08 -1.49045e-09 -9.2645e-10 -2.45949e-08 -1.19275e-08 -1.44061e-08 -1.09673e-08 -6.03863e-09 -4.71903e-09 -6.05803e-09 -5.27836e-09 -1.71726e-08
          -1.1864e-09 -1.67101e-09 -3.67015e-09 -3.02625e-08 -3.81642e-08 -2.35472e-09 -4.7489e-08 -1.61788e-08 -3.08304e-08 -1.36725e-08 -1.50724e-08 -3.68808e-09
          -3.72365e-09 -4.89258e-09 -2.36741e-08 -9.44353e-10 -1.36734e-09 -3.97084e-09 -3.17229e-08 -3.47001e-08 -1.68371e-09 -1.80939e-08 -1.19622e-08 -4.24645e-08
          -1.32497e-08 -3.04322e-08 -3.44491e-09 -2.75341e-09 -5.20842e-09 -2.85221e-08 -8.12003e-10 -1.1602e-09 -4.12462e-09 -2.91201e-08 -3.23472e-08 -1.93299e-09
          -6.14817e-09 -8.79314e-09 -4.11789e-08 -9.17993e-09 -4.53741e-08 -2.83586e-09 -2.04369e-09 -4.86476e-09 -3.14892e-08 -1.03179e-09 -1.54099e-09 -4.64381e-09
          -2.64244e-08 -2.94942e-08 -2.10034e-09 -3.06878e-09 -8.3903e-09 -4.11709e-08 -4.49773e-09 -5.71669e-08 -1.77868e-09 -1.30057e-09 -5.7296e-09 -2.93181e-08
          -9.64749e-10 -1.39821e-09 -5.06287e-09 -2.22403e-08 -2.83968e-08 -4.29927e-09 -2.20295e-09 -7.23491e-09 -4.12458e-08 -2.97105e-09 -6.92483e-08 -1.32246e-09
          -9.30846e-10 -9.1693e-09 -2.42633e-08 -1.1457e-09 -1.30394e-09 -5.50005e-09 -1.59738e-08 -2.52354e-08 -5.26959e-09 -1.93387e-09 -6.52216e-09 -4.0837e-08
          -1.66908e-09 -7.83895e-08 -2.07316e-09 -8.4707e-10 -1.18978e-08 -1.93285e-08 -1.91426e-09 -1.31795e-09 -5.82914e-09 -1.22075e-08 -2.29103e-08 -5.77962e-09
          -1.56247e-09 -5.59644e-09 -4.31269e-08 -1.17628e-09 -8.46522e-08 -2.97364e-09 -7.26304e-10 -1.20838e-08 -1.19784e-08 -4.0958e-09 -2.30105e-09 -6.16477e-09
          -1.00684e-08 -2.05625e-08 -4.79103e-09 -1.24764e-09 -3.72552e-09 -4.21211e-08 -2.4466e-09 -9.1798e-08 -8.5028e-09 -9.38114e-10 -9.89326e-09 -6.52122e-09
          -7.12127e-09 -3.27269e-09 -6.00377e-09 -8.90851e-09 -2.02921e-08 -4.62654e-09 -2.31191e-09 -4.3009e-09 -3.801e-08 -1.14769e-09 -8.96558e-08 -1.59224e-08
          -2.7314e-09 -4.79777e-09 -2.52435e-09 -7.77401e-09 -5.13133e-09 -5.27355e-09 -8.24382e-09 -1.61936e-08 -3.81844e-09 -2.83669e-09 -6.28564e-09 -3.85408e-08
          -7.64422e-10 -8.24623e-08 -1.9513e-08 -5.2246e-09 -3.61915e-09 -1.72616e-09 -6.74572e-09 -7.29236e-09 -4.40238e-09 -1.00702e-08 -1.17359e-08 -2.92688e-09
          -1.67607e-09 -7.02957e-09 -3.90444e-08 -1.02006e-09 -7.15403e-08 -2.22699e-08 -8.64885e-09 -4.58569e-09 -4.14054e-09 -9.27885e-09 -1.14896e-08 -3.42539e-09
          -1.08942e-08 -8.72403e-09 -2.23066e-09 -1.90137e-09 -9.18436e-09 -3.45971e-08 -2.3804e-09 -5.78281e-08 -2.29015e-08 -1.20904e-08 -3.25353e-09 -3.63079e-09
          -8.81721e-09 -1.77613e-08 -2.55774e-09 -1.10008e-08 -7.20515e-09 -1.30624e-09 -1.78238e-09 -1.38062e-08 -2.57095e-08 -3.44476e-09 -4.58235e-08 -2.50288e-08
          -1.67137e-08 -2.94767e-09 -3.14344e-09 -5.95731e-09 -2.22071e-08 -2.05084e-09 -1.02161e-08 -5.85388e-09 -1.49795e-09 -1.42213e-09 -1.73036e-08 -1.71904e-08
          -3.53432e-09 -3.36091e-08 -2.56525e-08 -2.5641e-08 -3.03828e-09 -3.33451e-09 -6.97508e-09 -2.56479e-08 -2.26687e-09 -8.56474e-09 -4.06464e-09 -1.20582e-09
          -1.15165e-09 -1.84708e-08 -1.06112e-08 -3.32457e-09 -2.52165e-08 -1.90637e-08 -4.26569e-08 -3.07434e-09 -3.11647e-09 -8.54274e-09 -2.72143e-08 -2.8497e-09
          -6.72762e-09 -3.24313e-09 -1.3932e-09 -1.12086e-09 -1.77163e-08 -6.87031e-09 -3.2318e-09 -2.02732e-08 -9.48309e-09 -5.57579e-08 -3.37997e-09 -3.86896e-09
          -1.04771e-08 -2.87787e-08 -3.17685e-09 -4.44561e-09 -2.20288e-09 -1.54863e-09 -1.2763e-09 -1.39539e-08 -6.03497e-09 -3.58818e-09 -1.93461e-08 -6.00741e-09
          -5.84977e-08 -4.29901e-09 -5.87402e-09 -1.17415e-08 -3.08269e-08 -4.50449e-09 -2.18642e-09 -1.18636e-09 -1.09404e-09 -1.17661e-09 -8.05411e-09 -5.52025e-09
          -3.86503e-09 -2.07102e-08 -5.80994e-09 -5.23568e-08 -7.12391e-09 -1.01483e-08 -1.62776e-08 -3.26762e-08 -5.68801e-09 -6.78251e-10 -5.04252e-10 -3.74992e-10
          -3.76687e-10 -2.2245e-09 -2.37249e-09 -1.93456e-09 -1.19781e-08 -6.00699e-09 -3.0444e-08 -1.30429e-08 -1.14227e-08 -1.30257e-08 -1.81741e-08 -3.05286e-09
        </DataArray>
        <DataArray type="Float32" Name="z[0]" NumberOfComponents="1" format="ascii">
          0.150578 0.150579 0.15058 0.150582 0.150582 0.150583 0.150584 0.150585 0.150585 0.150586 0.150587 0.150588
          0.150589 0.150591 0.150596 0.150581 0.150582 0.150583 0.150585 0.150586 0.150587 0.150587 0.150588 0.150588
          0.150589 0.15059 0.150591 0.150593 0.150595 0.150599 0.150584 0.150585 0.150587 0.150588 0.150589 0.15059
          0.15059 0.150591 0.150592 0.150593 0.150593 0.150595 0.150596 0.150598 0.150602 0.150588 0.150589 0.15059
          0.150591 0.150592 0.150593 0.150594 0.150594 0.150595 0.150596 0.150597 0.150598 0.150599 0.150601 0.150605
          0.150591 0.150592 0.150593 0.150594 0.150595 0.150596 0.150597 0.159682 0.150598 0.150599 0.1506 0.150601
          0.150602 0.150604 0.150609 0.150594 0.150595 0.150596 0.150597 0.150598 0.151733 0.18945 0.38639 0.150601
          0.150602 0.150603 0.150604 0.150605 0.150607 0.150612 0.150597 0.150598 0.150599 0.150601 0.151423 0.373798