<?xml version="1.0"?>
<VTKFile type="UnstructuredGrid" version="0.1" byte_order="LittleEndian">
  <UnstructuredGrid>
    <Piece NumberOfCells="360" NumberOfPoints="800">
      <CellData Scalars="pressure[0]">
        <DataArray type="Float32" Name="pressure[0]" NumberOfComponents="1" format="ascii">
          2.10059e+07 2.10205e+07 2.15574e+07 2.2118e+07 2.24877e+07 2.29217e+07 2.30585e+07 2.3109e+07 2.31702e+07 2.32391e+07 2.34434e+07 2.37798e+07
          2.40294e+07 2.46822e+07 2.54502e+07 2.10501e+07 2.10645e+07 2.16583e+07 2.2244e+07 2.26539e+07 2.30971e+07 2.31977e+07 2.32376e+07 2.33011e+07
          2.33804e+07 2.36668e+07 2.40077e+07 2.42085e+07 2.48769e+07 2.56176e+07 2.10949e+07 2.11086e+07 2.17269e+07 2.23846e+07 2.27429e+07 2.31569e+07
          2.32788e+07 2.33388e+07 2.34233e+07 2.35363e+07 2.39262e+07 2.43159e+07 2.45113e+07 2.51258e+07 2.58312e+07 2.11465e+07 2.11813e+07 2.15904e+07
          2.25173e+07 2.28565e+07 2.3246e+07 2.33565e+07 2.34108e+07 2.3549e+07 2.3735e+07 2.42606e+07 2.47003e+07 2.48897e+07 2.54227e+07 2.60987e+07
          2.12718e+07 2.12957e+07 1.97921e+07 2.26158e+07 2.30299e+07 2.34318e+07 2.35016e+07 2.35383e+07 2.37749e+07 2.41408e+07 2.46594e+07 2.50666e+07
          2.52617e+07 2.57598e+07 2.63618e+07 2.1472e+07 2.15149e+07 2.20622e+07 2.3106e+07 2.34114e+07 2.36751e+07 2.37172e+07 2.37574e+07 2.40858e+07
          2.46004e+07 2.51288e+07 2.53994e+07 2.56089e+07 2.6099e+07 2.66576e+07 2.17292e+07 2.17792e+07 2.27117e+07 2.35968e+07 2.38051e+07 2.3976e+07
          2.40672e+07 2.41746e+07 2.44437e+07 2.50716e+07 2.5577e+07 2.56944e+07 2.58931e+07 2.64672e+07 2.70721e+07 2.21004e+07 2.21542e+07 2.32218e+07
          2.40182e+07 2.42103e+07 2.45753e+07 2.46445e+07 2.47166e+07 2.4959e+07 2.55058e+07 2.5875e+07 2.59622e+07 2.62275e+07 2.68488e+07 2.76474e+07
          2.26436e+07 2.27063e+07 2.36643e+07 2.44735e+07 2.47257e+07 2.50777e+07 2.52156e+07 2.536e+07 2.55869e+07 2.59863e+07 2.61875e+07 2.62223e+07
          2.64926e+07 2.72827e+07 2.82224e+07 2.33047e+07 2.341e+07 2.40301e+07 2.47224e+07 2.52056e+07 2.55145e+07 2.58182e+07 2.61206e+07 2.62618e+07
          2.64635e+07 2.65686e+07 2.65992e+07 2.68823e+07 2.77191e+07 2.85622e+07 2.42519e+07 2.43945e+07 2.46673e+07 2.5191e+07 2.56221e+07 2.58345e+07
          2.63005e+07 2.6743e+07 2.68586e+07 2.69206e+07 2.69587e+07 2.70002e+07 2.7233e+07 2.80748e+07 2.88113e+07 2.49625e+07 2.5043e+07 2.51897e+07
          2.56091e+07 2.59836e+07 2.61479e+07 2.67755e+07 2.73321e+07 2.73678e+07 2.73688e+07 2.7361e+07 2.74007e+07 2.76033e+07 2.8428e+07 2.91133e+07
          2.54709e+07 2.55277e+07 2.56075e+07 2.59548e+07 2.65145e+07 2.67037e+07 2.73818e+07 2.79767e+07 2.80629e+07 2.78335e+07 2.7812e+07 2.78926e+07
          2.8634e+07 2.9732e+07 2.992e+07 2.58663e+07 2.59254e+07 2.60873e+07 2.65082e+07 2.75372e+07 2.76521e+07 2.82012e+07 2.86294e+07 2.8694e+07
          2.87198e+07 2.86707e+07 2.92192e+07 3.00493e+07 3.0674e+07 3.03757e+07 2.67609e+07 2.67661e+07 2.69614e+07 2.7455e+07 2.84441e+07 2.85322e+07
          2.88941e+07 2.91605e+07 2.92122e+07 2.92892e+07 2.94334e+07 3.02791e+07 3.09463e+07 3.11284e+07 3.09231e+07 2.75231e+07 2.75508e+07 2.77551e+07
          2.87301e+07 2.90198e+07 2.90795e+07 2.93339e+07 2.95011e+07 2.95518e+07 2.96296e+07 2.99409e+07 3.0735e+07 3.1326e+07 3.16529e+07 3.14372e+07
          2.82856e+07 2.8326e+07 2.84404e+07 2.93054e+07 2.94669e+07 2.95056e+07 2.96311e+07 2.97428e+07 2.97918e+07 2.98568e+07 3.02796e+07 3.12238e+07
          3.1858e+07 3.21766e+07 3.19055e+07 2.89037e+07 2.89617e+07 2.93222e+07 2.96284e+07 2.97634e+07 2.98077e+07 2.9904e+07 2.99858e+07 3.0037e+07
          3.0096e+07 3.0618e+07 3.16165e+07 3.22644e+07 3.25229e+07 3.23713e+07 2.92247e+07 2.92911e+07 2.95145e+07 2.98473e+07 3.00196e+07 3.00674e+07
          3.01508e+07 3.02219e+07 3.02686e+07 3.03252e+07 3.09e+07 3.20044e+07 3.26681e+07 3.2859e+07 3.30189e+07 2.94808e+07 2.95397e+07 2.97432e+07
          3.00738e+07 3.02424e+07 3.02908e+07 3.03713e+07 3.04382e+07 3.04852e+07 3.05488e+07 3.11183e+07 3.23362e+07 3.30661e+07 3.32139e+07 3.36337e+07
          2.96947e+07 2.9762e+07 2.9924e+07 3.02298e+07 3.04398e+07 3.04935e+07 3.05803e+07 3.06512e+07 3.07156e+07 3.07972e+07 3.16044e+07 3.29076e+07
          3.34347e+07 3.35917e+07 3.41102e+07 2.98992e+07 2.99692e+07 3.01135e+07 3.04126e+07 3.06268e+07 3.06864e+07 3.07876e+07 3.08693e+07 3.09542e+07
          3.1049e+07 3.21402e+07 3.34947e+07 3.38174e+07 3.40105e+07 3.45739e+07 3.00848e+07 3.01485e+07 3.03233e+07 3.0639e+07 3.08138e+07 3.0883e+07
          3.10029e+07 3.10983e+07 3.12092e+07 3.13286e+07 3.25934e+07 3.3978e+07 3.42539e+07 3.44714e+07 3.49037e+07 3.02536e+07 3.03141e+07 3.04671e+07
          3.07841e+07 3.10093e+07 3.10803e+07 3.12159e+07 3.13275e+07 3.1464e+07 3.16266e+07 3.30947e+07 3.43971e+07 3.47041e+07 3.49001e+07 3.51941e+07
        </DataArray>
        <DataArray type="Float32" Name="pressure[1]" NumberOfComponents="1" format="ascii">
          2.10059e+07 2.10205e+07 2.15574e+07 2.2118e+07 2.24877e+07 2.29217e+07 2.30585e+07 2.3109e+07 2.31702e+07 2.32391e+07 2.34434e+07 2.37798e+07
          2.40294e+07 2.46822e+07 2.54502e+07 2.10501e+07 2.10645e+07 2.16583e+07 2.2244e+07 2.26539e+07 2.30971e+07 2.31977e+07 2.32376e+07 2.33011e+07
          2.33804e+07 2.36668e+07 2.40077e+07 2.42085e+07 2.48769e+07 2.56176e+07 2.10949e+07 2.11086e+07 2.17269e+07 2.23846e+07 2.27429e+07 2.31569e+07
          2.32788e+07 2.33388e+07 2.34233e+07 2.35363e+07 2.39262e+07 2.43159e+07 2.45113e+07 2.51258e+07 2.58312e+07 2.11465e+07 2.11813e+07 2.15904e+07
          2.25173e+07 2.28565e+07 2.3246e+07 2.33565e+07 2.34108e+07 2.3549e+07 2.3735e+07 2.42606e+07 2.47003e+07 2.48897e+07 2.54227e+07 2.60987e+07
          2.12718e+07 2.12957e+07 1.97921e+07 2.26158e+07 2.30299e+07 2.34318e+07 2.35016e+07 2.35383e+07 2.37749e+07 2.41408e+07 2.46594e+07 2.50666e+07
          2.52617e+07 2.57598e+07 2.63618e+07 2.1472e+07 2.15149e+07 2.20622e+07 2.3106e+07 2.34114e+07 2.36751e+07 2.37172e+07 2.37574e+07 2.40858e+07
          2.46004e+07 2.51288e+07 2.53994e+07 2.56089e+07 2.6099e+07 2.66576e+07 2.17292e+07 2.17792e+07 2.27117e+07 2.35968e+07 2.38051e+07 2.3976e+07
          2.40672e+07 2.41746e+07 2.44437e+07 2.50716e+07 2.5577e+07 2.56944e+07 2.58931e+07 2.64672e+07 2.70721e+07 2.21004e+07 2.21542e+07 2.32218e+07
          2.40182e+07 2.42103e+07 2.45753e+07 2.46445e+07 2.47166e+07 2.4959e+07 2.55058e+07 2.5875e+07 2.59622e+07 2.62275e+07 2.68488e+07 2.76474e+07
          2.26436e+07 2.27063e+07 2.36643e+07 2.44735e+07 2.47257e+07 2.50777e+07 2.52156e+07 2.536e+07 2.55869e+07 2.59863e+07 2.61875e+07 2.62223e+07
          2.64926e+07 2.72827e+07 2.82224e+07 2.33047e+07 2.341e+07 2.40301e+07 2.47224e+07 2.52056e+07 2.55145e+07 2.58182e+07 2.61206e+07 2.62618e+07
          2.64635e+07 2.65686e+07 2.65992e+07 2.68823e+07 2.77191e+07 2.85622e+07 2.42519e+07 2.43945e+07 2.46673e+07 2.5191e+07 2.56221e+07 2.58345e+07
          2.63005e+07 2.6743e+07 2.68586e+07 2.69206e+07 2.69587e+07 2.70002e+07 2.7233e+07 2.80748e+07 2.88113e+07 2.49625e+07 2.5043e+07 2.51897e+07
          2.56091e+07 2.59836e+07 2.61479e+07 2.67755e+07 2.73321e+07 2.73678e+07 2.73688e+07 2.7361e+07 2.74007e+07 2.76033e+07 2.8428e+07 2.91133e+07
          2.54709e+07 2.55277e+07 2.56075e+07 2.59548e+07 2.65145e+07 2.67037e+07 2.73818e+07 2.79767e+07 2.80629e+07 2.78335e+07 2.7812e+07 2.78926e+07
          2.8634e+07 2.9732e+07 2.992e+07 2.58663e+07 2.59254e+07 2.60873e+07 2.65082e+07 2.75372e+07 2.76521e+07 2.82012e+07 2.86294e+07 2.8694e+07
          2.87198e+07 2.86707e+07 2.92192e+07 3.00493e+07 3.0674e+07 3.03757e+07 2.67609e+07 2.67661e+07 2.69614e+07 2.7455e+07 2.84441e+07 2.85322e+07
          2.88941e+07 2.91605e+07 2.92122e+07 2.92892e+07 2.94334e+07 3.02791e+07 3.09463e+07 3.11284e+07 3.09231e+07 2.75231e+07 2.75508e+07 2.77551e+07
          2.87301e+07 2.90198e+07 2.90795e+07 2.93339e+07 2.95011e+07 2.95518e+07 2.96296e+07 2.99409e+07 3.0735e+07 3.1326e+07 3.16529e+07 3.14372e+07
          2.82856e+07 2.8326e+07 2.84404e+07 2.93054e+07 2.94669e+07 2.95056e+07 2.96311e+07 2.97428e+07 2.97918e+07 2.98568e+07 3.02796e+07 3.12238e+07
          3.1858e+07 3.21766e+07 3.19055e+07 2.89037e+07 2.89617e+07 2.93222e+07 2.96284e+07 2.97634e+07 2.98077e+07 2.9904e+07 2.99858e+07 3.0037e+07
          3.0096e+07 3.0618e+07 3.16165e+07 3.22644e+07 3.25229e+07 3.23713e+07 2.92247e+07 2.92911e+07 2.95145e+07 2.98473e+07 3.00196e+07 3.00674e+07
          3.01508e+07 3.02219e+07 3.02686e+07 3.03252e+07 3.09e+07 3.20044e+07 3.26681e+07 3.2859e+07 3.30189e+07 2.94808e+07 2.95397e+07 2.97432e+07
          3.00738e+07 3.02424e+07 3.02908e+07 3.03713e+07 3.04382e+07 3.04852e+07 3.05488e+07 3.11183e+07 3.23362e+07 3.30661e+07 3.32139e+07 3.36337e+07
          2.96947e+07 2.9762e+07 2.9924e+07 3.02298e+07 3.04398e+07 3.04935e+07 3.05803e+07 3.06512e+07 3.07156e+07 3.07972e+07 3.16044e+07 3.29076e+07
          3.34347e+07 3.35917e+07 3.41102e+07 2.98992e+07 2.99692e+07 3.01135e+07 3.04126e+07 3.06268e+07 3.06864e+07 3.07876e+07 3.08693e+07 3.09542e+07
          3.1049e+07 3.21402e+07 3.34947e+07 3.38174e+07 3.40105e+07 3.45739e+07 3.00848e+07 3.01485e+07 3.03233e+07 3.0639e+07 3.08138e+07 3.0883e+07
          3.10029e+07 3.10983e+07 3.12092e+07 3.13286e+07 3.25934e+07 3.3978e+07 3.42539e+07 3.44714e+07 3.49037e+07 3.02536e+07 3.03141e+07 3.04671e+07
          3.07841e+07 3.10093e+07 3.10803e+07 3.12159e+07 3.13275e+07 3.1464e+07 3.16266e+07 3.30947e+07 3.43971e+07 3.47041e+07 3.49001e+07 3.51941e+07
        </DataArray>
        <DataArray type="Float32" Name="pressure[2]" NumberOfComponents="1" format="ascii">
          2.10059e+07 2.10205e+07 2.15574e+07 2.2118e+07 2.24877e+07 2.29217e+07 2.30585e+07 2.3109e+07 2.31702e+07 2.32391e+07 2.34434e+07 2.37798e+07
          2.40294e+07 2.46822e+07 2.54502e+07 2.10501e+07 2.10645e+07 2.16583e+07 2.2244e+07 2.26539e+07 2.30971e+07 2.31977e+07 2.32376e+07 2.33011e+07
          2.33804e+07 2.36668e+07 2.40077e+07 2.42085e+07 2.48769e+07 2.56176e+07 2.10949e+07 2.11086e+07 2.17269e+07 2.23846e+07 2.27429e+07 2.31569e+07
          2.32788e+07 2.33388e+07 2.34233e+07 2.35363e+07 2.39262e+07 2.43159e+07 2.45113e+07 2.51258e+07 2.58312e+07 2.11465e+07 2.11813e+07 2.15904e+07
          2.25173e+07 2.28565e+07 2.3246e+07 2.33565e+07 2.34108e+07 2.3549e+07 2.3735e+07 2.42606e+07 2.47003e+07 2.48897e+07 2.54227e+07 2.60987e+07
          2.12718e+07 2.12957e+07 1.97921e+07 2.26158e+07 2.30299e+07 2.34318e+07 2.35016e+07 2.35383e+07 2.37749e+07 2.41408e+07 2.46594e+07 2.50666e+07
          2.52617e+07 2.57598e+07 2.63618e+07 2.1472e+07 2.15149e+07 2.20622e+07 2.3106e+07 2.34114e+07 2.36751e+07 2.37172e+07 2.37574e+07 2.40858e+07
          2.46004e+07 2.51288e+07 2.53994e+07 2.56089e+07 2.6099e+07 2.66576e+07 2.17292e+07 2.17792e+07 2.27117e+07 2.35968e+07 2.38051e+07 2.3976e+07
          2.40672e+07 2.41746e+07 2.44437e+07 2.50716e+07 2.5577e+07 2.56944e+07 2.58931e+07 2.64672e+07 2.70721e+07 2.21004e+07 2.21542e+07 2.32218e+07
          2.40182e+07 2.42103e+07 2.45753e+07 2.46445e+07 2.47166e+07 2.4959e+07 2.55058e+07 2.5875e+07 2.59622e+07 2.62275e+07 2.68488e+07 2.76474e+07
          2.26436e+07 2.27063e+07 2.36643e+07 2.44735e+07 2.47257e+07 2.50777e+07 2.52156e+07 2.536e+07 2.55869e+07 2.59863e+07 2.61875e+07 2.62223e+07
          2.64926e+07 2.72827e+07 2.82224e+07 2.33047e+07 2.341e+07 2.40301e+07 2.47224e+07 2.52056e+07 2.55145e+07 2.58182e+07 2.61206e+07 2.62618e+07
          2.64635e+07 2.65686e+07 2.65992e+07 2.68823e+07 2.77191e+07 2.85622e+07 2.42519e+07 2.43945e+07 2.46673e+07 2.5191e+07 2.56221e+07 2.58345e+07
          2.63005e+07 2.6743e+07 2.68586e+07 2.69206e+07 2.69587e+07 2.70002e+07 2.7233e+07 2.80748e+07 2.88113e+07 2.49625e+07 2.5043e+07 2.51897e+07
          2.56091e+07 2.59836e+07 2.61479e+07 2.67755e+07 2.73321e+07 2.73678e+07 2.73688e+07 2.7361e+07 2.74007e+07 2.76033e+07 2.8428e+07 2.91133e+07
          2.54709e+07 2.55277e+07 2.56075e+07 2.59548e+07 2.65145e+07 2.67037e+07 2.73818e+07 2.79767e+07 2.80629e+07 2.78335e+07 2.7812e+07 2.78926e+07
          2.8634e+07 2.9732e+07 2.992e+07 2.58663e+07 2.59254e+07 2.60873e+07 2.65082e+07 2.75372e+07 2.76521e+07 2.82012e+07 2.86294e+07 2.8694e+07
          2.87198e+07 2.86707e+07 2.92192e+07 3.00493e+07 3.0674e+07 3.03757e+07 2.67609e+07 2.67661e+07 2.69614e+07 2.7455e+07 2.84441e+07 2.85322e+07
          2.88941e+07 2.91605e+07 2.92122e+07 2.92892e+07 2.94334e+07 3.02791e+07 3.09463e+07 3.11284e+07 3.09231e+07 2.75231e+07 2.75508e+07 2.77551e+07
          2.87301e+07 2.90198e+07 2.90795e+07 2.93339e+07 2.95011e+07 2.95518e+07 2.96296e+07 2.99409e+07 3.0735e+07 3.1326e+07 3.16529e+07 3.14372e+07
          2.82856e+07 2.8326e+07 2.84404e+07 2.93054e+07 2.94669e+07 2.95056e+07 2.96311e+07 2.97428e+07 2.97918e+07 2.98568e+07 3.02796e+07 3.12238e+07
          3.1858e+07 3.21766e+07 3.19055e+07 2.89037e+07 2.89617e+07 2.93222e+07 2.96284e+07 2.97634e+07 2.98077e+07 2.9904e+07 2.99858e+07 3.0037e+07
          3.0096e+07 3.0618e+07 3.16165e+07 3.22644e+07 3.25229e+07 3.23713e+07 2.92247e+07 2.92911e+07 2.95145e+07 2.98473e+07 3.00196e+07 3.00674e+07
          3.01508e+07 3.02219e+07 3.02686e+07 3.03252e+07 3.09e+07 3.20044e+07 3.26681e+07 3.2859e+07 3.30189e+07 2.94808e+07 2.95397e+07 2.97432e+07
          3.00738e+07 3.02424e+07 3.02908e+07 3.03713e+07 3.04382e+07 3.04852e+07 3.05488e+07 3.11183e+07 3.23362e+07 3.30661e+07 3.32139e+07 3.36337e+07
          2.96947e+07 2.9762e+07 2.9924e+07 3.02298e+07 3.04398e+07 3.04935e+07 3.05803e+07 3.06512e+07 3.07156e+07 3.07972e+07 3.16044e+07 3.29076e+07
          3.34347e+07 3.35917e+07 3.41102e+07 2.98992e+07 2.99692e+07 3.01135e+07 3.04126e+07 3.06268e+07 3.06864e+07 3.07876e+07 3.08693e+07 3.09542e+07
          3.1049e+07 3.21402e+07 3.34947e+07 3.38174e+07 3.40105e+07 3.45739e+07 3.00848e+07 3.01485e+07 3.03233e+07 3.0639e+07 3.08138e+07 3.0883e+07
          3.10029e+07 3.10983e+07 3.12092e+07 3.13286e+07 3.25934e+07 3.3978e+07 3.42539e+07 3.44714e+07 3.49037e+07 3.02536e+07 3.03141e+07 3.04671e+07
          3.07841e+07 3.10093e+07 3.10803e+07 3.12159e+07 3.13275e+07 3.1464e+07 3.16266e+07 3.30947e+07 3.43971e+07 3.47041e+07 3.49001e+07 3.51941e+07
        </DataArray>
        <DataArray type="Float32" Name="velocity[0]" NumberOfComponents="1" format="ascii">
          -1.04244e-09 3.20697e-08 2.59995e-10 2.72695e-10 -2.52887e-10 -1.19167e-09 3.07742e-10 1.73451e-09 2.84449e-09 -1.00853e-11 -1.9122e-09 -2.71267e-09
          -1.81531e-09 -5.87905e-10 -2.75361e-09 -1.17299e-08 1.02561e-07 5.93929e-10 -5.64812e-09 1.98802e-10 2.31655e-09 1.03865e-08 7.06476e-09 6.6961e-09
          -1.51183e-09 -3.97107e-09 -1.15211e-08 -7.08587e-09 -1.83779e-09 -7.30898e-09 -6.66991e-08 2.10015e-07 1.23511e-09 1.83363e-08 9.07514e-10 6.80276e-09
          1.91101e-08 1.43988e-08 5.24635e-09 -4.87603e-09 -4.75033e-09 -2.88442e-08 -1.01541e-08 -3.94044e-09 -1.09625e-08 -6.0693e-08 2.15853e-07 6.67711e-09
          9.38638e-08 -5.78469e-10 -2.11048e-09 7.90606e-09 1.1974e-08 -1.73638e-09 -1.23101e-08 -6.16518e-09 -4.99721e-08 -7.21252e-09 -5.75131e-09 -1.49675e-08
          -8.75739e-08 -4.39824e-08 -2.32883e-10 -1.00055e-07 -1.2667e-08 -3.91471e-08 -3.20103e-08 -1.73995e-08 -6.00022e-09 -1.32537e-08 -8.77103e-09 -8.58494e-08
          -3.6691e-09 -5.27698e-09 -1.84579e-08 -1.75236e-07 -2.18729e-07 -7.2966e-09 -2.35172e-07 -2.93941e-08 -1.47381e-07 -5.28726e-08 -6.24016e-08 -5.65852e-09
          -6.29936e-09 -1.3738e-08 -1.26469e-07 -2.18383e-09 -4.20967e-09 -2.08034e-08 -1.77362e-07 -1.90948e-07 -2.4104e-09 -8.17224e-08 -3.35441e-08 -2.29148e-07
          -4.87986e-08 -1.47095e-07 -6.92574e-09 -3.34635e-09 -1.74523e-08 -1.553e-07 -1.91615e-09 -4.15106e-09 -2.24272e-08 -1.6269e-07 -1.76779e-07 -2.58368e-09
          -2.21941e-08 -3.38552e-08 -2.2634e-07 -3.63326e-08 -2.46305e-07 -7.63317e-09 -2.94653e-09 -1.9844e-08 -1.75058e-07 -1.60199e-09 -4.26834e-09 -2.42605e-08
          -1.47562e-07 -1.6041e-07 -3.1487e-09 -6.82155e-09 -3.42614e-08 -2.23249e-07 -1.28445e-08 -3.1477e-07 -6.23975e-09 -3.26615e-09 -3.30054e-08 -1.692e-07
          -1.53426e-09 -3.83818e-09 -2.66827e-08 -1.1966e-07 -1.45389e-07 -1.05943e-08 -2.3441e-09 -3.0772e-08 -2.21998e-07 -4.27829e-09 -3.82579e-07 -5.78218e-09
          -3.71661e-09 -5.57233e-08 -1.42124e-07 -2.38934e-09 -3.16835e-09 -2.91118e-08 -8.727e-08 -1.3441e-07 -2.04584e-08 -2.1855e-09 -2.96347e-08 -2.20211e-07
          -1.45564e-09 -4.33826e-07 -1.05777e-08 -5.1759e-09 -7.07617e-08 -1.12501e-07 -5.3447e-09 -3.41461e-09 -3.13398e-08 -6.70702e-08 -1.24218e-07 -2.48987e-08
          -1.17411e-09 -2.81278e-08 -2.27746e-07 -1.19695e-09 -4.67079e-07 -1.94765e-08 -9.09165e-09 -7.27417e-08 -7.60614e-08 -1.15226e-08 -6.4022e-09 -3.36707e-08
          -5.58908e-08 -1.16926e-07 -2.33226e-08 -2.43056e-09 -2.29393e-08 -2.24959e-07 -1.7438e-09 -4.96526e-07 -4.55326e-08 -1.12976e-08 -5.76991e-08 -3.28963e-08
          -2.67566e-08 -1.38298e-08 -3.49433e-08 -4.74995e-08 -1.11774e-07 -1.95862e-08 -7.4231e-09 -2.17469e-08 -2.12917e-07 -1.82799e-09 -4.92887e-07 -8.32603e-08
          -1.60178e-08 -3.16324e-08 -8.28941e-09 -3.57036e-08 -2.70524e-08 -3.33974e-08 -4.83577e-08 -9.25497e-08 -1.58167e-08 -8.29614e-09 -2.86374e-08 -2.15776e-07
          -1.33131e-09 -4.60202e-07 -1.03071e-07 -2.49104e-08 -1.67526e-08 -4.20613e-09 -3.28925e-08 -4.29139e-08 -2.9671e-08 -5.73831e-08 -6.56869e-08 -1.22284e-08
          -4.9891e-09 -3.61822e-08 -2.1955e-07 -1.70353e-09 -3.95309e-07 -1.08704e-07 -3.3217e-08 -9.43573e-09 -5.37735e-09 -3.69865e-08 -6.35535e-08 -2.4779e-08
          -6.14878e-08 -4.84872e-08 -8.63352e-09 -5.41803e-09 -5.09672e-08 -1.93665e-07 -3.25278e-09 -3.14399e-07 -1.10081e-07 -5.13584e-08 -3.75092e-09 -5.19854e-09
          -3.0303e-08 -9.45104e-08 -1.95643e-08 -6.14915e-08 -3.85891e-08 -3.05899e-09 -4.00977e-09 -7.58376e-08 -1.39947e-07 -4.92912e-09 -2.40803e-07 -1.19349e-07
          -7.83422e-08 -2.63881e-09 -3.50372e-09 -1.9693e-08 -1.23582e-07 -1.51999e-08 -5.58283e-08 -2.76529e-08 -1.57049e-09 -1.45954e-09 -9.36491e-08 -8.89065e-08
          -5.18719e-09 -1.72514e-07 -1.19642e-07 -1.23528e-07 -1.53714e-09 -2.88735e-09 -2.57568e-08 -1.41256e-07 -1.32646e-08 -4.65114e-08 -1.86724e-08 -1.525e-09
          -6.62222e-10 -9.96215e-08 -5.0508e-08 -4.32973e-09 -1.26514e-07 -7.75069e-08 -2.14392e-07 -2.68603e-09 -4.10558e-09 -3.83066e-08 -1.49781e-07 -1.42431e-08
          -3.56193e-08 -1.25766e-08 -1.36929e-09 -1.75487e-10 -9.26062e-08 -2.63939e-08 -3.71361e-09 -9.96435e-08 -3.24573e-08 -2.97512e-07 -4.21262e-09 -7.56288e-09
          -4.66154e-08 -1.56512e-07 -1.63376e-08 -2.24287e-08 -6.42419e-09 -2.14587e-09 -8.32175e-10 -6.8437e-08 -1.79379e-08 -3.62928e-09 -9.40592e-08 -1.76121e-08
          -3.14483e-07 -3.84446e-09 -1.45349e-08 -5.1026e-08 -1.63334e-07 -2.02538e-08 -1.04798e-08 -2.57304e-09 -9.68016e-10 -5.51147e-10 -3.41484e-08 -1.33785e-08
          -2.97719e-09 -9.91775e-08 -1.41896e-08 -2.70906e-07 -5.33459e-09 -2.50631e-08 -6.68742e-08 -1.70137e-07 -2.64234e-08 -2.77852e-09 -5.80459e-10 2.1087e-10
          7.65571e-11 -8.04625e-09 -5.10287e-09 -1.08942e-09 -5.05203e-08 -6.60777e-09 -1.17111e-07 -3.51921e-09 -1.52045e-08 -3.99204e-08 -8.74312e-08 -1.48321e-08
        </DataArray>
        <DataArray type="Float32" Name="velocity[1]" NumberOfComponents="1" format="ascii">
          1.62008e-25 5.06205e-24 7.34207e-26 4.23801e-26 3.93016e-26 0 -4.78268e-26 -2.26969e-25 6.04245e-26 5.76715e-24 -3.75462e-24 4.29965e-26
          2.46196e-24 -9.77586e-25 4.27736e-25 1.49895e-24 5.90756e-24 6.75737e-26 -9.62545e-25 -1.96606e-25 7.24058e-24 1.29067e-24 3.8637e-25 -6.83421e-24
          -1.6756e-25 0 -4.26448e-26 4.724e-26 2.07506e-28 2.80014e-25 7.0439e-24 -8.32716e-24 -1.51621e-24 4.69001e-24 -2.26676e-25 0
          7.78295e-26 -6.3382e-25 -3.81829e-25 0 7.15419e-24 -1.11616e-23 0 1.15212e-24 -2.88274e-25 -1.5929e-23 2.08245e-23 -1.44956e-24
          -8.79809e-24 3.27297e-25 9.26482e-24 -2.20147e-23 2.4551e-23 -4.29975e-24 1.22211e-24 3.58848e-24 -4.73267e-24 3.2061e-24 -1.33957e-24 1.00415e-24
          -8.62956e-26 -6.11212e-23 5.73793e-24 9.96491e-24 -4.05371e-25 -4.67969e-24 1.29292e-25 -1.12547e-25 -1.66416e-25 -6.91559e-24 4.3718e-24 -8.07482e-24
          -2.54761e-28 1.31028e-25 -1.53821e-24 -1.20569e-25 6.80581e-24 -5.83649e-25 7.67506e-24 1.76988e-25 -1.28217e-23 0 -1.02888e-25 -1.24786e-25
          3.15189e-25 -4.90084e-25 5.7221e-24 -1.47483e-24 8.73159e-25 1.53756e-24 -9.86764e-25 1.12344e-24 0 7.90928e-24 -2.102e-25 -7.83276e-24
          6.97109e-26 -6.8768e-26 -3.66127e-24 2.41802e-28 -2.85222e-28 -7.10849e-28 3.58143e-26 -2.23491e-28 -1.69488e-24 -1.6566e-25 1.30792e-23 1.2673e-24
          3.13964e-24 -4.75606e-26 1.86889e-23 4.36277e-26 6.30926e-27 1.99216e-25 -3.38333e-26 -3.67889e-24 -1.30953e-23 -3.05904e-28 -3.72503e-25 1.97979e-24
          -1.37825e-24 -9.43524e-24 -3.56971e-26 -1.40971e-24 -3.12809e-25 3.49297e-24 0 0 -3.95774e-25 1.45014e-28 9.10754e-25 3.55209e-24
          -6.92627e-28 5.89654e-26 -3.59978e-28 -1.08616e-23 1.36521e-24 1.59898e-24 -1.49215e-25 -2.79403e-24 3.63405e-24 -6.7147e-24 5.54357e-24 4.74445e-25
          -5.42115e-26 -4.15394e-25 3.4351e-24 -8.42717e-25 0 -2.16701e-24 4.09798e-24 8.77608e-26 4.11061e-25 -2.33952e-25 2.3568e-24 3.21595e-27
          -4.27465e-24 4.85291e-24 6.99097e-25 1.73032e-25 -2.34186e-26 8.28369e-24 1.79197e-24 -3.12645e-25 1.56323e-25 -4.59568e-24 1.91219e-24 -2.79799e-25
          5.86043e-26 -2.31663e-24 -1.81994e-23 3.05568e-26 2.74794e-24 -2.4998e-24 -4.36111e-25 8.86934e-25 2.82992e-24 -1.98797e-24 1.10047e-24 -2.06116e-25
          4.09024e-24 9.17614e-24 0 -2.24569e-25 -4.97744e-25 1.44409e-24 5.45833e-26 1.83554e-24 -3.36565e-24 -7.12801e-28 -3.44403e-24 -9.47611e-25
          1.80655e-24 -6.88368e-25 -1.59936e-28 -7.98836e-25 8.40947e-28 1.02973e-24 -1.10247e-24 1.00565e-27 1.57973e-23 -4.08555e-26 -2.39553e-24 4.88933e-24
          4.96917e-25 3.44529e-24 2.41828e-24 -4.61356e-24 -3.62268e-29 -2.47933e-24 -3.29125e-24 -6.00864e-24 -2.09485e-29 8.52485e-25 7.56869e-25 7.35478e-28
          -3.58447e-26 -6.95268e-24 1.8988e-24 0 0 3.40662e-25 3.76555e-24 -4.87875e-25 4.61132e-24 0 1.80986e-24 0
          -3.38532e-25 4.16149e-25 5.26153e-28 9.36922e-26 -7.40305e-24 -1.57162e-29 3.27057e-29 -8.7862e-29 4.06338e-24 -3.97278e-28 -1.19984e-24 -2.13183e-24
          2.40157e-28 8.6308e-25 1.13457e-28 -1.6538e-25 1.88224e-24 -1.01043e-23 0 -1.04097e-23 0 1.42458e-28 2.98673e-24 -3.70297e-24
          -1.69494e-24 3.05498e-28 1.32151e-24 0 3.33615e-24 0 5.0383e-25 1.74896e-24 4.88096e-24 1.1309e-25 -6.2662e-24 -5.45096e-24
          -2.10967e-24 1.76861e-25 5.1662e-26 -5.84833e-29 -1.7308e-24 -1.04073e-24 3.98158e-24 -1.97774e-24 2.17636e-24 -1.79728e-24 7.85165e-25 8.56787e-24
          -7.29647e-26 -4.34662e-24 1.00337e-23 5.32941e-24 -3.20488e-24 7.00223e-26 8.96602e-25 -4.8204e-28 1.02074e-24 1.14125e-28 -3.5959e-24 7.78393e-25
          -1.65152e-24 2.86165e-25 -2.64951e-24 -1.2025e-25 -5.60463e-24 -5.07528e-24 9.21041e-24 2.61539e-25 3.43444e-24 1.05357e-24 -3.44633e-25 -8.48696e-25
          -9.58029e-25 5.77108e-25 0 -3.58944e-26 -1.23344e-24 4.29515e-24 -7.55194e-24 7.55263e-24 -5.52611e-24 1.18017e-27 0 0
          2.37792e-25 -7.04144e-28 1.34626e-24 -1.09195e-24 -1.14688e-24 1.05889e-24 -1.77912e-24 -9.16479e-25 -1.28575e-24 2.20031e-26 5.06056e-25 -3.60373e-24
          1.30225e-23 -2.49598e-25 -6.26409e-24 4.47281e-25 9.11292e-25 -1.35768e-28 -7.64861e-25 -2.29158e-28 -2.45936e-28 1.08664e-25 -2.80638e-24 4.93438e-25
          -1.24072e-25 9.83394e-24 -4.09068e-24 0 -2.64796e-25 -8.30464e-25 6.37194e-24 -7.35261e-25 0 -4.32027e-25 -2.36142e-28 -3.52282e-25
          5.98252e-25 -1.25014e-24 -2.07135e-24 -3.39345e-25 -2.669e-24 1.02693e-24 -2.84245e-23 0 2.84426e-23 -2.08794e-23 1.72655e-23 4.33124e-25
        </DataArray>
        <DataArray type="Float32" Name="velocity[2]" NumberOfComponents="1" format="ascii">
          -1.15436e-10 4.21334e-09 -2.95573e-09 -2.91393e-09 -2.93871e-09 -2.97623e-09 -2.62559e-09 -2.40796e-09 -2.39852e-09 -3.02933e-09 -3.1975e-09 -3.01194e-09
          -2.52956e-09 -2.05432e-09 -1.40387e-09 -1.4253e-09 1.74705e-08 -2.37908e-09 -3.10617e-09 -1.74054e-09 -1.57024e-09 -5.90222e-10 -1.51198e-09 -1.70253e-09
          -3.10569e-09 -3.42361e-09 -4.33822e-09 -2.92331e-09 -1.63674e-09 -1.88988e-09 -8.73215e-09 3.9639e-08 -6.5076e-10 8.7303e-10 -3.63037e-09 -2.51446e-09
          -2.63928e-10 -1.1428e-09 -2.67402e-09 -4.18351e-09 -3.99139e-09 -7.47739e-09 -3.49688e-09 -2.17075e-09 -2.55083e-09 -1.41112e-08 3.438e-08 2.63535e-10
          1.30226e-08 -5.72753e-09 -5.43324e-09 -2.94175e-09 -1.761e-09 -3.69907e-09 -5.00725e-09 -3.59588e-09 -1.06372e-08 -2.66192e-09 -2.5125e-09 -3.35705e-09
          -1.01911e-08 -1.35555e-09 -9.43013e-10 -2.49508e-08 -1.21125e-08 -1.47832e-08 -1.13452e-08 -7.31478e-09 -4.64218e-09 -6.0487e-09 -5.2772e-09 -1.7177e-08
          -1.19289e-09 -1.68274e-09 -3.70112e-09 -3.02182e-08 -3.8254e-08 -2.38784e-09 -4.80468e-08 -1.64826e-08 -3.31107e-08 -1.2874e-08 -1.41732e-08 -3.54701e-09
          -3.71944e-09 -4.91301e-09 -2.37132e-08 -9.51759e-10 -1.37887e-09 -4.00505e-09 -3.1698e-08 -3.47441e-08 -1.70395e-09 -1.80925e-08 -1.20941e-08 -4.65171e-08
          -1.44582e-08 -2.99852e-08 -3.51269e-09 -2.83918e-09 -5.31485e-09 -2.87341e-08 -8.20547e-10 -1.17167e-09 -4.16071e-09 -2.91064e-08 -3.23471e-08 -1.91866e-09
          -5.82556e-09 -8.24193e-09 -4.22601e-08 -9.43904e-09 -4.59656e-08 -2.95104e-09 -2.15437e-09 -5.00981e-09 -3.19292e-08 -1.04481e-09 -1.55857e-09 -4.68465e-09
          -2.64617e-08 -2.94993e-08 -2.08027e-09 -2.97078e-09 -8.17868e-09 -4.15385e-08 -4.54223e-09 -5.70774e-08 -1.87043e-09 -1.38735e-09 -5.90781e-09 -2.98858e-08
          -9.79863e-10 -1.41777e-09 -5.10649e-09 -2.23714e-08 -2.84337e-08 -4.28533e-09 -2.17829e-09 -7.25823e-09 -4.11937e-08 -2.99572e-09 -6.88145e-08 -1.40378e-09
          -1.00788e-09 -9.44363e-09 -2.48967e-08 -1.16983e-09 -1.32907e-09 -5.54227e-09 -1.61814e-08 -2.54604e-08 -5.31699e-09 -1.91206e-09 -6.76854e-09 -4.02987e-08
          -1.687e-09 -7.75241e-08 -2.2051e-09 -9.38132e-10 -1.22264e-08 -2.01924e-08 -1.96353e-09 -1.36197e-09 -5.86154e-09 -1.23551e-08 -2.32682e-08 -5.90664e-09
          -1.57681e-09 -6.44447e-09 -4.14461e-08 -1.18959e-09 -8.28635e-08 -3.20069e-09 -9.93222e-10 -1.22107e-08 -1.42497e-08 -3.97637e-09 -2.423e-09 -6.37935e-09
          -1.00721e-08 -2.11081e-08 -4.95167e-09 -1.48722e-09 -5.20286e-09 -4.14298e-08 -2.49244e-09 -8.94148e-08 -8.27521e-09 -9.62747e-10 -1.00143e-08 -7.72814e-09
          -7.11122e-09 -3.22694e-09 -6.1396e-09 -8.71668e-09 -2.05909e-08 -4.56979e-09 -2.27952e-09 -4.51978e-09 -3.82444e-08 -1.16548e-09 -8.81575e-08 -1.53875e-08
          -2.35577e-09 -5.70114e-09 -2.62598e-09 -7.87255e-09 -5.15119e-09 -5.39192e-09 -8.12705e-09 -1.62802e-08 -3.80537e-09 -2.90807e-09 -6.36903e-09 -3.88452e-08
          -7.7482e-10 -8.21553e-08 -1.94167e-08 -5.26728e-09 -3.82386e-09 -1.76023e-09 -6.8378e-09 -7.34462e-09 -4.48678e-09 -9.91661e-09 -1.17611e-08 -2.93271e-09
          -1.70389e-09 -7.09347e-09 -3.93712e-08 -1.02794e-09 -7.16879e-08 -2.23066e-08 -8.69278e-09 -4.63569e-09 -4.16471e-09 -9.37389e-09 -1.1605e-08 -3.48345e-09
          -1.07704e-08 -8.68368e-09 -2.22952e-09 -1.90528e-09 -9.23837e-09 -3.48763e-08 -2.39651e-09 -5.81241e-08 -2.30143e-08 -1.2158e-08 -3.26434e-09 -3.64542e-09
          -8.89065e-09 -1.79496e-08 -2.59703e-09 -1.09146e-08 -7.16495e-09 -1.30465e-09 -1.78356e-09 -1.38875e-08 -2.58929e-08 -3.45969e-09 -4.60922e-08 -2.51726e-08
          -1.68122e-08 -2.95608e-09 -3.15457e-09 -5.99962e-09 -2.24429e-08 -2.07783e-09 -1.01485e-08 -5.8168e-09 -1.49062e-09 -1.41669e-09 -1.74074e-08 -1.72984e-08
          -3.54508e-09 -3.38087e-08 -2.58005e-08 -2.57901e-08 -3.04802e-09 -3.34658e-09 -7.02142e-09 -2.59126e-08 -2.29601e-09 -8.51519e-09 -4.04156e-09 -1.19963e-09
          -1.1462e-09 -1.85831e-08 -1.06692e-08 -3.33227e-09 -2.53687e-08 -1.91671e-08 -4.28935e-08 -3.08565e-09 -3.12925e-09 -8.60785e-09 -2.74809e-08 -2.8805e-09
          -6.6919e-09 -3.22546e-09 -1.38615e-09 -1.11529e-09 -1.78257e-08 -6.90359e-09 -3.24052e-09 -2.03981e-08 -9.53051e-09 -5.60574e-08 -3.39367e-09 -3.8866e-09
          -1.05634e-08 -2.90482e-08 -3.21007e-09 -4.42342e-09 -2.19178e-09 -1.54115e-09 -1.27023e-09 -1.4036e-08 -6.06193e-09 -3.59983e-09 -1.9455e-08 -6.03499e-09
          -5.88056e-08 -4.31823e-09 -5.90555e-09 -1.18369e-08 -3.11011e-08 -4.54777e-09 -2.17621e-09 -1.18093e-09 -1.08917e-09 -1.17159e-09 -8.09433e-09 -5.54314e-09
          -3.87856e-09 -2.08135e-08 -5.83612e-09 -5.26289e-08 -7.15807e-09 -1.02075e-08 -1.63946e-08 -3.29502e-08 -5.73973e-09 -6.75272e-10 -5.02105e-10 -3.73542e-10
          -3.75406e-10 -2.23328e-09 -2.38177e-09 -1.94144e-09 -1.20341e-08 -6.03459e-09 -3.05995e-08 -1.31071e-08 -1.14856e-08 -1.31097e-08 -1.8318e-08 -3.07988e-09
        </DataArray>
        <DataArray type="Float32" Name="z[0]" NumberOfComponents="1" format="ascii">
          0.150578 0.150579 0.15058 0.150582 0.150582 0.150583 0.150584 0.150585 0.150585 0.150586 0.150587 0.150588
          0.150589 0.150591 0.150596 0.150581 0.150582 0.150583 0.150585 0.150586 0.150587 0.150587 0.150588 0.150588
          0.150589 0.15059 0.150591 0.150593 0.150595 0.150599 0.150584 0.150585 0.150587 0.150588 0.150589 0.15059
          0.15059 0.150591 0.150592 0.150593 0.150593 0.150595 0.150596 0.150598 0.150602 0.150588 0.150589 0.15059
          0.150591 0.150592 0.150593 0.150594 0.150594 0.150595 0.150596 0.150597 0.150598 0.150599 0.150601 0.150605
          0.150591 0.150592 0.150593 0.150594 0.150595 0.150596 0.150597 0.150927 0.150598 0.150599 0.1506 0.150601
          0.150602 0.150604 0.150609 0.150594 0.150595 0.150596 0.150597 0.150598 0.1506 0.152806 0.363173 0.150601
          0.150602 0.150603 0.150604 0.150605 0.150607 0.150612 0.150597 0.150598 0.150599 0.150601 0.150602 0.206794