<?xml version="1.0"?>
<VTKFile type="UnstructuredGrid" version="0.1" byte_order="LittleEndian">
  <UnstructuredGrid>
    <Piece NumberOfCells="360" NumberOfPoints="800">
      <CellData Scalars="pressure[0]">
        <DataArray type="Float32" Name="pressure[0]" NumberOfComponents="1" format="ascii">
          2.1048e+07 2.10624e+07 2.1686e+07 2.23355e+07 2.27112e+07 2.31313e+07 2.32624e+07 2.33111e+07 2.33703e+07 2.34356e+07 2.36173e+07 2.39187e+07
          2.41423e+07 2.47552e+07 2.54898e+07 2.10925e+07 2.11065e+07 2.1796e+07 2.24815e+07 2.2892e+07 2.33111e+07 2.34071e+07 2.3445e+07 2.35058e+07
          2.35792e+07 2.38312e+07 2.4136e+07 2.43179e+07 2.49496e+07 2.56557e+07 2.11426e+07 2.11692e+07 2.1876e+07 2.26294e+07 2.29971e+07 2.33898e+07
          2.35046e+07 2.35598e+07 2.36381e+07 2.37386e+07 2.40785e+07 2.44243e+07 2.46054e+07 2.51907e+07 2.58651e+07 2.1253e+07 2.1299e+07 2.1746e+07
          2.27648e+07 2.31303e+07 2.35109e+07 2.36148e+07 2.36648e+07 2.3784e+07 2.3939e+07 2.43916e+07 2.47807e+07 2.49503e+07 2.54782e+07 2.61252e+07
          2.13855e+07 2.1409e+07 1.98022e+07 2.28666e+07 2.33281e+07 2.37296e+07 2.37971e+07 2.38337e+07 2.40232e+07 2.43101e+07 2.47729e+07 2.51496e+07
          2.53354e+07 2.58052e+07 2.6381e+07 2.1588e+07 2.1631e+07 2.22533e+07 2.34023e+07 2.37348e+07 2.39968e+07 2.40389e+07 2.40741e+07 2.43222e+07
          2.4753e+07 2.52271e+07 2.54745e+07 2.56728e+07 2.61338e+07 2.66675e+07 2.18487e+07 2.18993e+07 2.2975e+07 2.38927e+07 2.41046e+07 2.42826e+07
          2.43153e+07 2.43414e+07 2.45836e+07 2.51733e+07 2.56477e+07 2.57605e+07 2.5949e+07 2.64898e+07 2.70654e+07 2.22243e+07 2.22791e+07 2.34081e+07
          2.42506e+07 2.44438e+07 2.45708e+07 2.46074e+07 2.46726e+07 2.49479e+07 2.55365e+07 2.59309e+07 2.60204e+07 2.6272e+07 2.68589e+07 2.7614e+07
          2.2772e+07 2.28348e+07 2.37543e+07 2.45339e+07 2.47507e+07 2.48457e+07 2.49195e+07 2.5141e+07 2.54594e+07 2.59801e+07 2.62343e+07 2.6275e+07
          2.65333e+07 2.72809e+07 2.81621e+07 2.34376e+07 2.354e+07 2.40571e+07 2.46405e+07 2.50046e+07 2.50823e+07 2.5443e+07 2.58479e+07 2.60865e+07
          2.64404e+07 2.66109e+07 2.66463e+07 2.69218e+07 2.77147e+07 2.84893e+07 2.42753e+07 2.43983e+07 2.46404e+07 2.49746e+07 2.52339e+07 2.52765e+07
          2.57427e+07 2.64761e+07 2.66744e+07 2.68792e+07 2.7002e+07 2.705e+07 2.72927e+07 2.80885e+07 2.87313e+07 2.50184e+07 2.5088e+07 2.52001e+07
          2.53959e+07 2.55493e+07 2.5567e+07 2.59544e+07 2.71161e+07 2.72311e+07 2.73323e+07 2.74089e+07 2.7468e+07 2.77182e+07 2.84745e+07 2.89929e+07
          2.55736e+07 2.56239e+07 2.56655e+07 2.58991e+07 2.60735e+07 2.6163e+07 2.69623e+07 2.76786e+07 2.77181e+07 2.78123e+07 2.78824e+07 2.79898e+07
          2.82301e+07 2.89696e+07 2.97461e+07 2.60102e+07 2.60657e+07 2.61444e+07 2.65137e+07 2.67727e+07 2.70999e+07 2.77526e+07 2.83004e+07 2.8348e+07
          2.83639e+07 2.83611e+07 2.8531e+07 2.96781e+07 3.03752e+07 3.01961e+07 2.63462e+07 2.64129e+07 2.67127e+07 2.72017e+07 2.79853e+07 2.80823e+07
          2.84971e+07 2.88473e+07 2.88982e+07 2.89719e+07 2.91091e+07 2.99651e+07 3.07142e+07 3.08957e+07 3.07458e+07 2.6862e+07 2.6877e+07 2.73387e+07
          2.79111e+07 2.85964e+07 2.86827e+07 2.89913e+07 2.92003e+07 2.92522e+07 2.93333e+07 2.96559e+07 3.04944e+07 3.11226e+07 3.1469e+07 3.12697e+07
          2.77582e+07 2.77917e+07 2.79498e+07 2.891e+07 2.912e+07 2.91613e+07 2.93089e+07 2.94421e+07 2.9492e+07 2.95585e+07 3.00077e+07 3.10154e+07
          3.16924e+07 3.20293e+07 3.17515e+07 2.84806e+07 2.85383e+07 2.8928e+07 2.92814e+07 2.94361e+07 2.94813e+07 2.95914e+07 2.96861e+07 2.97384e+07
          2.97986e+07 3.03572e+07 3.1428e+07 3.21215e+07 3.23924e+07 3.22336e+07 2.88235e+07 2.88917e+07 2.91368e+07 2.95117e+07 2.97039e+07 2.97526e+07
          2.98453e+07 2.9925e+07 2.99726e+07 3.00302e+07 3.06468e+07 3.18341e+07 3.25458e+07 3.27435e+07 3.29115e+07 2.9093e+07 2.91527e+07 2.93764e+07
          2.97468e+07 2.99334e+07 2.99826e+07 3.00705e+07 3.01441e+07 3.01922e+07 3.02572e+07 3.08687e+07 3.21798e+07 3.29635e+07 3.31147e+07 3.35564e+07
          2.93144e+07 2.93837e+07 2.956e+07 2.99009e+07 3.01343e+07 3.01892e+07 3.02828e+07 3.03597e+07 3.04268e+07 3.05116e+07 3.13804e+07 3.27844e+07
          3.33493e+07 3.35104e+07 3.40561e+07 2.95251e+07 2.95975e+07 2.97533e+07 3.00858e+07 3.03237e+07 3.03848e+07 3.04934e+07 3.05814e+07 3.06708e+07
          3.07702e+07 3.19464e+07 3.34061e+07 3.37503e+07 3.39506e+07 3.45427e+07 2.97142e+07 2.97795e+07 2.99697e+07 3.03205e+07 3.05129e+07 3.05845e+07
          3.0713e+07 3.08155e+07 3.0933e+07 3.1059e+07 3.24234e+07 3.39159e+07 3.42095e+07 3.44361e+07 3.48857e+07 2.98843e+07 2.99458e+07 3.0111e+07
          3.04623e+07 3.07114e+07 3.07851e+07 3.09304e+07 3.10503e+07 3.11953e+07 3.13677e+07 3.29528e+07 3.43563e+07 3.46834e+07 3.48869e+07 3.51866e+07
        </DataArray>
        <DataArray type="Float32" Name="pressure[1]" NumberOfComponents="1" format="ascii">
          2.1048e+07 2.10624e+07 2.1686e+07 2.23355e+07 2.27112e+07 2.31313e+07 2.32624e+07 2.33111e+07 2.33703e+07 2.34356e+07 2.36173e+07 2.39187e+07
          2.41423e+07 2.47552e+07 2.54898e+07 2.10925e+07 2.11065e+07 2.1796e+07 2.24815e+07 2.2892e+07 2.33111e+07 2.34071e+07 2.3445e+07 2.35058e+07
          2.35792e+07 2.38312e+07 2.4136e+07 2.43179e+07 2.49496e+07 2.56557e+07 2.11426e+07 2.11692e+07 2.1876e+07 2.26294e+07 2.29971e+07 2.33898e+07
          2.35046e+07 2.35598e+07 2.36381e+07 2.37386e+07 2.40785e+07 2.44243e+07 2.46054e+07 2.51907e+07 2.58651e+07 2.1253e+07 2.1299e+07 2.1746e+07
          2.27648e+07 2.31303e+07 2.35109e+07 2.36148e+07 2.36648e+07 2.3784e+07 2.3939e+07 2.43916e+07 2.47807e+07 2.49503e+07 2.54782e+07 2.61252e+07
          2.13855e+07 2.1409e+07 1.98022e+07 2.28666e+07 2.33281e+07 2.37296e+07 2.37971e+07 2.38337e+07 2.40232e+07 2.43101e+07 2.47729e+07 2.51496e+07
          2.53354e+07 2.58052e+07 2.6381e+07 2.1588e+07 2.1631e+07 2.22533e+07 2.34023e+07 2.37348e+07 2.39968e+07 2.40389e+07 2.40741e+07 2.43222e+07
          2.4753e+07 2.52271e+07 2.54745e+07 2.56728e+07 2.61338e+07 2.66675e+07 2.18487e+07 2.18993e+07 2.2975e+07 2.38927e+07 2.41046e+07 2.42826e+07
          2.43153e+07 2.43414e+07 2.45836e+07 2.51733e+07 2.56477e+07 2.57605e+07 2.5949e+07 2.64898e+07 2.70654e+07 2.22243e+07 2.22791e+07 2.34081e+07
          2.42506e+07 2.44438e+07 2.45708e+07 2.46074e+07 2.46726e+07 2.49479e+07 2.55365e+07 2.59309e+07 2.60204e+07 2.6272e+07 2.68589e+07 2.7614e+07
          2.2772e+07 2.28348e+07 2.37543e+07 2.45339e+07 2.47507e+07 2.48457e+07 2.49195e+07 2.5141e+07 2.54594e+07 2.59801e+07 2.62343e+07 2.6275e+07
          2.65333e+07 2.72809e+07 2.81621e+07 2.34376e+07 2.354e+07 2.40571e+07 2.46405e+07 2.50046e+07 2.50823e+07 2.5443e+07 2.58479e+07 2.60865e+07
          2.64404e+07 2.66109e+07 2.66463e+07 2.69218e+07 2.77147e+07 2.84893e+07 2.42753e+07 2.43983e+07 2.46404e+07 2.49746e+07 2.52339e+07 2.52765e+07
          2.57427e+07 2.64761e+07 2.66744e+07 2.68792e+07 2.7002e+07 2.705e+07 2.72927e+07 2.80885e+07 2.87313e+07 2.50184e+07 2.5088e+07 2.52001e+07
          2.53959e+07 2.55493e+07 2.5567e+07 2.59544e+07 2.71161e+07 2.72311e+07 2.73323e+07 2.74089e+07 2.7468e+07 2.77182e+07 2.84745e+07 2.89929e+07
          2.55736e+07 2.56239e+07 2.56655e+07 2.58991e+07 2.60735e+07 2.6163e+07 2.69623e+07 2.76786e+07 2.77181e+07 2.78123e+07 2.78824e+07 2.79898e+07
          2.82301e+07 2.89696e+07 2.97461e+07 2.60102e+07 2.60657e+07 2.61444e+07 2.65137e+07 2.67727e+07 2.70999e+07 2.77526e+07 2.83004e+07 2.8348e+07
          2.83639e+07 2.83611e+07 2.8531e+07 2.96781e+07 3.03752e+07 3.01961e+07 2.63462e+07 2.64129e+07 2.67127e+07 2.72017e+07 2.79853e+07 2.80823e+07
          2.84971e+07 2.88473e+07 2.88982e+07 2.89719e+07 2.91091e+07 2.99651e+07 3.07142e+07 3.08957e+07 3.07458e+07 2.6862e+07 2.6877e+07 2.73387e+07
          2.79111e+07 2.85964e+07 2.86827e+07 2.89913e+07 2.92003e+07 2.92522e+07 2.93333e+07 2.96559e+07 3.04944e+07 3.11226e+07 3.1469e+07 3.12697e+07
          2.77582e+07 2.77917e+07 2.79498e+07 2.891e+07 2.912e+07 2.91613e+07 2.93089e+07 2.94421e+07 2.9492e+07 2.95585e+07 3.00077e+07 3.10154e+07
          3.16924e+07 3.20293e+07 3.17515e+07 2.84806e+07 2.85383e+07 2.8928e+07 2.92814e+07 2.94361e+07 2.94813e+07 2.95914e+07 2.96861e+07 2.97384e+07
          2.97986e+07 3.03572e+07 3.1428e+07 3.21215e+07 3.23924e+07 3.22336e+07 2.88235e+07 2.88917e+07 2.91368e+07 2.95117e+07 2.97039e+07 2.97526e+07
          2.98453e+07 2.9925e+07 2.99726e+07 3.00302e+07 3.06468e+07 3.18341e+07 3.25458e+07 3.27435e+07 3.29115e+07 2.9093e+07 2.91527e+07 2.93764e+07
          2.97468e+07 2.99334e+07 2.99826e+07 3.00705e+07 3.01441e+07 3.01922e+07 3.02572e+07 3.08687e+07 3.21798e+07 3.29635e+07 3.31147e+07 3.35564e+07
          2.93144e+07 2.93837e+07 2.956e+07 2.99009e+07 3.01343e+07 3.01892e+07 3.02828e+07 3.03597e+07 3.04268e+07 3.05116e+07 3.13804e+07 3.27844e+07
          3.33493e+07 3.35104e+07 3.40561e+07 2.95251e+07 2.95975e+07 2.97533e+07 3.00858e+07 3.03237e+07 3.03848e+07 3.04934e+07 3.05814e+07 3.06708e+07
          3.07702e+07 3.19464e+07 3.34061e+07 3.37503e+07 3.39506e+07 3.45427e+07 2.97142e+07 2.97795e+07 2.99697e+07 3.03205e+07 3.05129e+07 3.05845e+07
          3.0713e+07 3.08155e+07 3.0933e+07 3.1059e+07 3.24234e+07 3.39159e+07 3.42095e+07 3.44361e+07 3.48857e+07 2.98843e+07 2.99458e+07 3.0111e+07
          3.04623e+07 3.07114e+07 3.07851e+07 3.09304e+07 3.10503e+07 3.11953e+07 3.13677e+07 3.29528e+07 3.43563e+07 3.46834e+07 3.48869e+07 3.51866e+07
        </DataArray>
        <DataArray type="Float32" Name="pressure[2]" NumberOfComponents="1" format="ascii">
          2.1048e+07 2.10624e+07 2.1686e+07 2.23355e+07 2.27112e+07 2.31313e+07 2.32624e+07 2.33111e+07 2.33703e+07 2.34356e+07 2.36173e+07 2.39187e+07
          2.41423e+07 2.47552e+07 2.54898e+07 2.10925e+07 2.11065e+07 2.1796e+07 2.24815e+07 2.2892e+07 2.33111e+07 2.34071e+07 2.3445e+07 2.35058e+07
          2.35792e+07 2.38312e+07 2.4136e+07 2.43179e+07 2.49496e+07 2.56557e+07 2.11426e+07 2.11692e+07 2.1876e+07 2.26294e+07 2.29971e+07 2.33898e+07
          2.35046e+07 2.35598e+07 2.36381e+07 2.37386e+07 2.40785e+07 2.44243e+07 2.46054e+07 2.51907e+07 2.58651e+07 2.1253e+07 2.1299e+07 2.1746e+07
          2.27648e+07 2.31303e+07 2.35109e+07 2.36148e+07 2.36648e+07 2.3784e+07 2.3939e+07 2.43916e+07 2.47807e+07 2.49503e+07 2.54782e+07 2.61252e+07
          2.13855e+07 2.1409e+07 1.98022e+07 2.28666e+07 2.33281e+07 2.37296e+07 2.37971e+07 2.38337e+07 2.40232e+07 2.43101e+07 2.47729e+07 2.51496e+07
          2.53354e+07 2.58052e+07 2.6381e+07 2.1588e+07 2.1631e+07 2.22533e+07 2.34023e+07 2.37348e+07 2.39968e+07 2.40389e+07 2.40741e+07 2.43222e+07
          2.4753e+07 2.52271e+07 2.54745e+07 2.56728e+07 2.61338e+07 2.66675e+07 2.18487e+07 2.18993e+07 2.2975e+07 2.38927e+07 2.41046e+07 2.42826e+07
          2.43153e+07 2.43414e+07 2.45836e+07 2.51733e+07 2.56477e+07 2.57605e+07 2.5949e+07 2.64898e+07 2.70654e+07 2.22243e+07 2.22791e+07 2.34081e+07
          2.42506e+07 2.44438e+07 2.45708e+07 2.46074e+07 2.46726e+07 2.49479e+07 2.55365e+07 2.59309e+07 2.60204e+07 2.6272e+07 2.68589e+07 2.7614e+07
          2.2772e+07 2.28348e+07 2.37543e+07 2.45339e+07 2.47507e+07 2.48457e+07 2.49195e+07 2.5141e+07 2.54594e+07 2.59801e+07 2.62343e+07 2.6275e+07
          2.65333e+07 2.72809e+07 2.81621e+07 2.34376e+07 2.354e+07 2.40571e+07 2.46405e+07 2.50046e+07 2.50823e+07 2.5443e+07 2.58479e+07 2.60865e+07
          2.64404e+07 2.66109e+07 2.66463e+07 2.69218e+07 2.77147e+07 2.84893e+07 2.42753e+07 2.43983e+07 2.46404e+07 2.49746e+07 2.52339e+07 2.52765e+07
          2.57427e+07 2.64761e+07 2.66744e+07 2.68792e+07 2.7002e+07 2.705e+07 2.72927e+07 2.80885e+07 2.87313e+07 2.50184e+07 2.5088e+07 2.52001e+07
          2.53959e+07 2.55493e+07 2.5567e+07 2.59544e+07 2.71161e+07 2.72311e+07 2.73323e+07 2.74089e+07 2.7468e+07 2.77182e+07 2.84745e+07 2.89929e+07
          2.55736e+07 2.56239e+07 2.56655e+07 2.58991e+07 2.60735e+07 2.6163e+07 2.69623e+07 2.76786e+07 2.77181e+07 2.78123e+07 2.78824e+07 2.79898e+07
          2.82301e+07 2.89696e+07 2.97461e+07 2.60102e+07 2.60657e+07 2.61444e+07 2.65137e+07 2.67727e+07 2.70999e+07 2.77526e+07 2.83004e+07 2.8348e+07
          2.83639e+07 2.83611e+07 2.8531e+07 2.96781e+07 3.03752e+07 3.01961e+07 2.63462e+07 2.64129e+07 2.67127e+07 2.72017e+07 2.79853e+07 2.80823e+07
          2.84971e+07 2.88473e+07 2.88982e+07 2.89719e+07 2.91091e+07 2.99651e+07 3.07142e+07 3.08957e+07 3.07458e+07 2.6862e+07 2.6877e+07 2.73387e+07
          2.79111e+07 2.85964e+07 2.86827e+07 2.89913e+07 2.92003e+07 2.92522e+07 2.93333e+07 2.96559e+07 3.04944e+07 3.11226e+07 3.1469e+07 3.12697e+07
          2.77582e+07 2.77917e+07 2.79498e+07 2.891e+07 2.912e+07 2.91613e+07 2.93089e+07 2.94421e+07 2.9492e+07 2.95585e+07 3.00077e+07 3.10154e+07
          3.16924e+07 3.20293e+07 3.17515e+07 2.84806e+07 2.85383e+07 2.8928e+07 2.92814e+07 2.94361e+07 2.94813e+07 2.95914e+07 2.96861e+07 2.97384e+07
          2.97986e+07 3.03572e+07 3.1428e+07 3.21215e+07 3.23924e+07 3.22336e+07 2.88235e+07 2.88917e+07 2.91368e+07 2.95117e+07 2.97039e+07 2.97526e+07
          2.98453e+07 2.9925e+07 2.99726e+07 3.00302e+07 3.06468e+07 3.18341e+07 3.25458e+07 3.27435e+07 3.29115e+07 2.9093e+07 2.91527e+07 2.93764e+07
          2.97468e+07 2.99334e+07 2.99826e+07 3.00705e+07 3.01441e+07 3.01922e+07 3.02572e+07 3.08687e+07 3.21798e+07 3.29635e+07 3.31147e+07 3.35564e+07
          2.93144e+07 2.93837e+07 2.956e+07 2.99009e+07 3.01343e+07 3.01892e+07 3.02828e+07 3.03597e+07 3.04268e+07 3.05116e+07 3.13804e+07 3.27844e+07
          3.33493e+07 3.35104e+07 3.40561e+07 2.95251e+07 2.95975e+07 2.97533e+07 3.00858e+07 3.03237e+07 3.03848e+07 3.04934e+07 3.05814e+07 3.06708e+07
          3.07702e+07 3.19464e+07 3.34061e+07 3.37503e+07 3.39506e+07 3.45427e+07 2.97142e+07 2.97795e+07 2.99697e+07 3.03205e+07 3.05129e+07 3.05845e+07
          3.0713e+07 3.08155e+07 3.0933e+07 3.1059e+07 3.24234e+07 3.39159e+07 3.42095e+07 3.44361e+07 3.48857e+07 2.98843e+07 2.99458e+07 3.0111e+07
          3.04623e+07 3.07114e+07 3.07851e+07 3.09304e+07 3.10503e+07 3.11953e+07 3.13677e+07 3.29528e+07 3.43563e+07 3.46834e+07 3.48869e+07 3.51866e+07
        </DataArray>
        <DataArray type="Float32" Name="velocity[0]" NumberOfComponents="1" format="ascii">
          -2.94841e-09 3.84818e-08 1.81504e-10 -3.99166e-09 -3.75147e-10 -1.44314e-09 -5.96283e-10 1.11059e-09 1.73105e-09 -4.30272e-10 -1.85101e-09 -2.55317e-09
          -1.75679e-09 -5.84925e-10 -2.59262e-09 -3.48352e-08 1.45449e-07 4.48729e-10 -1.80353e-08 -6.37989e-11 1.50768e-09 7.39126e-09 5.075e-09 3.72974e-09
          -2.52079e-09 -3.88722e-09 -1.10075e-08 -6.72845e-09 -1.74288e-09 -6.87753e-09 -3.7503e-08 1.9065e-07 1.14916e-09 2.05608e-09 4.25969e-10 4.39241e-09
          1.30443e-08 9.37144e-09 1.56536e-09 -6.14033e-09 -4.63143e-09 -2.66875e-08 -9.15999e-09 -3.68469e-09 -1.03104e-08 -1.14762e-08 1.74167e-07 7.12321e-09
          8.21477e-08 -1.58423e-09 -8.82282e-09 -6.18803e-09 -7.73495e-10 -4.52031e-09 -1.32555e-08 -5.95423e-09 -4.85122e-08 -6.65115e-09 -5.42944e-09 -1.40718e-08
          -9.19067e-08 -3.40313e-08 -2.81382e-10 -1.26422e-07 -1.45892e-08 -5.62041e-08 -6.37052e-08 -4.59138e-08 -7.06249e-09 -1.35122e-08 -8.40938e-09 -8.38854e-08
          -3.73905e-09 -4.99909e-09 -1.73449e-08 -1.81276e-07 -2.25987e-07 -7.9908e-09 -2.68769e-07 -3.26972e-08 -1.75453e-07 -1.02764e-07 -1.1949e-07 -4.61065e-09
          -5.98135e-09 -1.27283e-08 -1.19962e-07 -2.07229e-09 -3.98197e-09 -1.95374e-08 -1.82083e-07 -1.95967e-07 -2.42239e-09 -9.0017e-08 -3.28704e-08 -3.35532e-07
          -9.55031e-08 -1.41561e-07 -4.0968e-09 -2.70741e-09 -1.58375e-08 -1.4582e-07 -1.80505e-09 -3.93132e-09 -2.10519e-08 -1.65442e-07 -1.79551e-07 -2.01934e-09
          -1.64932e-08 -2.12796e-08 -4.21896e-07 -6.11649e-08 -1.60838e-07 -5.12091e-09 -2.44156e-09 -1.84135e-08 -1.65546e-07 -1.52179e-09 -4.07002e-09 -2.27576e-08
          -1.49168e-07 -1.61561e-07 -2.36806e-09 -2.4981e-09 -1.37107e-08 -4.10638e-07 -1.91666e-08 -2.59672e-07 -5.15534e-09 -3.00869e-09 -3.20046e-08 -1.63106e-07
          -1.5129e-09 -3.73652e-09 -2.50015e-08 -1.2199e-07 -1.48874e-07 -9.31295e-09 -6.076e-10 -1.02524e-08 -3.72292e-07 -3.93503e-09 -3.66488e-07 -5.47633e-09
          -3.51382e-09 -5.54313e-08 -1.40924e-07 -2.51873e-09 -3.27572e-09 -2.72113e-08 -9.10427e-08 -1.42854e-07 -2.06945e-08 -1.57368e-09 -1.69749e-08 -3.31701e-07
          -1.07738e-09 -4.32775e-07 -1.18144e-08 -5.10785e-09 -7.15553e-08 -1.16492e-07 -6.49869e-09 -3.86101e-09 -2.91392e-08 -7.29894e-08 -1.38355e-07 -2.83389e-08
          -1.56385e-09 -4.02406e-08 -2.7461e-07 -1.59036e-09 -4.15992e-07 -4.35741e-08 -9.67769e-09 -7.60113e-08 -8.49287e-08 -2.00934e-08 -7.11107e-09 -3.10496e-08
          -6.57174e-08 -1.40162e-07 -2.56028e-08 -3.12226e-09 -5.7238e-08 -2.18862e-07 -2.27382e-09 -4.12231e-07 -6.59358e-08 -2.06303e-08 -6.87366e-08 -4.19722e-08
          -3.34776e-08 -1.87147e-08 -3.31725e-08 -6.08872e-08 -1.47349e-07 -1.5543e-08 -6.3385e-09 -4.58208e-08 -2.08984e-07 -1.95342e-09 -4.54899e-07 -8.14539e-08
          -2.61001e-08 -4.07624e-08 -1.27172e-08 -3.65559e-08 -3.55112e-08 -3.31541e-08 -4.45216e-08 -1.54261e-07 -1.0228e-08 -1.02218e-08 -3.36287e-08 -2.26631e-07
          -1.56111e-09 -4.51928e-07 -1.03294e-07 -2.65564e-08 -1.8276e-08 -5.59334e-09 -3.67096e-08 -5.02439e-08 -3.01455e-08 -4.95664e-08 -1.14178e-07 -1.01352e-08
          -1.06358e-08 -3.98547e-08 -2.38457e-07 -1.95794e-09 -3.94187e-07 -1.08225e-07 -3.29995e-08 -1.04168e-08 -6.20454e-09 -4.12068e-08 -7.07726e-08 -2.5643e-08
          -6.89137e-08 -6.00232e-08 -8.73051e-09 -8.70297e-09 -5.88521e-08 -2.17866e-07 -3.60217e-09 -3.1625e-07 -1.10732e-07 -5.11495e-08 -4.0064e-09 -5.68303e-09
          -3.32791e-08 -1.03383e-07 -2.04965e-08 -6.96437e-08 -4.45847e-08 -3.89817e-09 -5.1137e-09 -8.5674e-08 -1.56991e-07 -5.33538e-09 -2.46188e-07 -1.22382e-07
          -8.02681e-08 -2.80244e-09 -3.79328e-09 -2.14267e-08 -1.34312e-07 -1.60664e-08 -6.34482e-08 -3.15391e-08 -1.96994e-09 -1.69323e-09 -1.04174e-07 -9.87262e-08
          -5.59509e-09 -1.79746e-07 -1.247e-07 -1.29308e-07 -1.63214e-09 -3.11851e-09 -2.79019e-08 -1.53131e-07 -1.41155e-08 -5.29132e-08 -2.1271e-08 -1.7537e-09
          -7.33157e-10 -1.09376e-07 -5.54489e-08 -4.64383e-09 -1.32711e-07 -8.16582e-08 -2.27893e-07 -2.88777e-09 -4.43569e-09 -4.14617e-08 -1.62206e-07 -1.52374e-08
          -4.05021e-08 -1.43044e-08 -1.54382e-09 -1.76665e-10 -1.00758e-07 -2.86888e-08 -3.96508e-09 -1.0502e-07 -3.44992e-08 -3.18506e-07 -4.54654e-09 -8.17446e-09
          -5.0445e-08 -1.69383e-07 -1.75503e-08 -2.54735e-08 -7.28963e-09 -2.42388e-09 -9.27954e-10 -7.41137e-08 -1.94097e-08 -3.89218e-09 -1.00323e-07 -1.88571e-08
          -3.37872e-07 -4.15401e-09 -1.57174e-08 -5.52079e-08 -1.76721e-07 -2.18079e-08 -1.18828e-08 -2.90878e-09 -1.08858e-09 -6.10711e-10 -3.69354e-08 -1.44909e-08
          -3.21103e-09 -1.06834e-07 -1.5276e-08 -2.91686e-07 -5.76989e-09 -2.71108e-08 -7.23404e-08 -1.84047e-07 -2.84996e-08 -3.14549e-09 -6.53407e-10 2.44608e-10
          9.38391e-11 -8.72331e-09 -5.53284e-09 -1.17885e-09 -5.46359e-08 -7.12855e-09 -1.2622e-07 -3.80762e-09 -1.6449e-08 -4.31812e-08 -9.45713e-08 -1.60066e-08
        </DataArray>
        <DataArray type="Float32" Name="velocity[1]" NumberOfComponents="1" format="ascii">
          4.58218e-25 5.56607e-24 8.54909e-26 -6.20351e-25 5.83022e-26 0 9.26694e-26 -1.41417e-25 4.78687e-26 5.47459e-24 -3.54027e-24 3.95445e-26
          2.32686e-24 -9.24147e-25 4.02936e-25 4.49736e-24 1.0875e-23 7.68366e-26 -1.5622e-24 -1.73164e-25 7.27455e-24 1.16619e-24 3.34246e-25 -6.90353e-24
          -1.10837e-25 0 -3.28725e-26 4.18804e-26 7.63436e-27 2.63002e-25 -4.08276e-24 -1.35589e-23 -1.76829e-24 4.68464e-24 -1.62024e-25 0
          3.91566e-25 -2.58127e-25 -3.77965e-25 0 6.79049e-24 -1.064e-23 0 1.08126e-24 -2.70127e-25 1.35783e-25 1.21053e-23 -1.59867e-24
          -8.02411e-24 4.31494e-25 1.00766e-23 -2.05262e-23 2.48604e-23 -3.67457e-24 1.07376e-24 3.32357e-24 -4.17616e-24 3.13025e-24 -1.25759e-24 9.42538e-25
          -9.26499e-26 -6.68266e-23 6.2201e-24 1.1626e-23 -5.42348e-25 -5.80606e-24 1.707e-25 -1.18697e-26 1.38681e-26 -6.21562e-24 3.99289e-24 -7.30528e-24
          -4.48975e-26 1.23752e-25 -1.4451e-24 -1.19017e-25 7.16222e-24 -6.82128e-25 7.92174e-24 2.12608e-25 -1.33447e-23 0 -4.01855e-26 6.61686e-26
          3.85385e-25 -4.37064e-25 5.67484e-24 -1.36424e-24 8.10076e-25 1.44528e-24 -1.09599e-24 1.27258e-24 0 1.00019e-23 -9.16727e-25 -3.00472e-23
          -2.14243e-25 -4.98592e-26 -3.2951e-24 1.98648e-26 -1.10124e-26 -1.84715e-26 3.39481e-26 3.53819e-28 -1.59125e-24 -1.98865e-25 1.32381e-23 1.47403e-24
          3.31538e-24 -7.96485e-26 3.04202e-23 1.50941e-26 -8.17375e-26 -9.29369e-26 -5.39266e-26 -3.74889e-24 -1.24975e-23 1.68364e-28 -3.47558e-25 1.85633e-24
          -1.44813e-24 -9.42517e-24 -8.79777e-26 -1.88093e-24 -4.39199e-25 6.6811e-24 0 0 -9.7441e-25 -7.71286e-28 1.12081e-24 2.81514e-24
          1.33887e-27 4.90873e-26 1.68248e-28 -1.0969e-23 8.80865e-25 1.31253e-24 -1.21385e-25 -2.0431e-24 5.01238e-24 -9.27377e-24 7.03055e-24 9.21741e-25
          -4.76418e-26 -8.44054e-25 3.01374e-24 -7.92847e-25 0 -2.0292e-24 4.40565e-24 9.43226e-26 7.26486e-25 -1.32662e-25 2.46531e-24 -7.08651e-26
          -6.93944e-24 6.53365e-24 9.07281e-25 1.97517e-25 5.29943e-25 8.30204e-24 2.00186e-24 -2.57808e-25 1.28904e-25 -5.18398e-24 1.01471e-24 -4.61938e-25
          -1.53337e-25 1.91823e-24 -1.88327e-23 1.40339e-25 -5.87105e-24 -4.40446e-24 -5.09741e-25 -6.23977e-25 3.76434e-24 -1.81236e-24 1.0829e-24 -1.67411e-25
          5.0431e-24 1.0555e-23 0 -2.13378e-25 1.41243e-25 3.38894e-24 -2.72415e-26 5.29023e-24 5.50793e-25 1.07202e-27 -4.75563e-24 -1.49765e-24
          5.08392e-25 -7.46875e-25 -3.40306e-28 -5.95967e-25 -2.94031e-27 8.91564e-25 -5.72135e-25 -2.20236e-27 1.17072e-23 -1.2774e-26 1.34242e-24 2.62472e-24
          3.33033e-24 4.7556e-24 3.39822e-24 -4.99546e-24 2.71688e-28 -2.49334e-24 -4.43487e-24 -1.23122e-23 8.53956e-28 6.35771e-25 6.46452e-26 -1.87876e-27
          -4.52971e-26 -5.56693e-24 1.68011e-24 0 0 4.78751e-25 4.08887e-24 -4.84486e-25 4.68532e-24 0 6.87401e-24 0
          -7.00114e-25 9.05653e-25 -1.72341e-27 1.0697e-25 -7.1803e-24 8.82013e-28 1.65247e-27 8.8851e-28 4.34589e-24 2.03599e-27 -1.30527e-24 -2.19073e-24
          -4.35613e-28 1.54213e-24 2.00527e-27 4.58972e-26 2.05094e-24 -1.10246e-23 0 -1.14584e-23 0 -3.42349e-27 3.2027e-24 -3.97122e-24
          -1.88073e-24 -1.03743e-28 1.39138e-24 0 3.89304e-24 0 6.52866e-25 2.13685e-24 5.25566e-24 1.20737e-25 -5.9543e-24 -5.43873e-24
          -2.29432e-24 1.88075e-25 5.85039e-26 -4.41277e-29 -1.83612e-24 -1.10553e-24 4.52982e-24 -2.24287e-24 2.48896e-24 -2.07728e-24 7.56958e-25 9.56007e-24
          -8.05837e-26 -4.37149e-24 1.03864e-23 5.75225e-24 -3.46233e-24 7.6e-26 9.68158e-25 -2.7359e-28 1.08818e-24 1.12897e-27 -4.09852e-24 8.89151e-25
          -1.89426e-24 1.03506e-25 -2.9496e-24 -1.34583e-25 -5.88072e-24 -5.28969e-24 9.98393e-24 2.82824e-25 3.71046e-24 1.13935e-24 -3.83278e-25 -8.96462e-25
          -1.09251e-24 6.58308e-25 0 -4.06782e-26 -1.39168e-24 4.84512e-24 -8.51725e-24 8.51577e-24 -6.05505e-24 -4.01693e-27 0 0
          2.56387e-25 -2.56307e-28 1.44763e-24 -1.24312e-24 -1.31058e-24 1.20678e-24 -2.02994e-24 -9.16194e-25 -1.3908e-24 2.80205e-26 6.3338e-25 -3.95749e-24
          1.41531e-23 -2.7131e-25 -6.77242e-24 4.83297e-25 9.87698e-25 -5.60533e-29 -8.68068e-25 -1.11139e-27 -1.16554e-27 1.21583e-25 -3.02909e-24 5.33783e-25
          -1.32616e-25 1.08022e-23 -4.47446e-24 0 -2.86788e-25 -9.00161e-25 6.8907e-24 -7.92693e-25 0 -4.89768e-25 -1.26954e-27 -4.00403e-25
          6.77407e-25 -1.35505e-24 -2.27854e-24 -3.64562e-25 -2.81491e-24 1.10786e-24 -3.07622e-23 0 3.07554e-23 -2.25798e-23 1.86723e-23 4.69272e-25
        </DataArray>
        <DataArray type="Float32" Name="velocity[2]" NumberOfComponents="1" format="ascii">
          -2.25477e-10 5.31704e-09 -3.46205e-09 -3.937e-09 -3.02196e-09 -3.07588e-09 -2.81502e-09 -2.51282e-09 -2.51306e-09 -2.94956e-09 -3.03196e-09 -2.8492e-09
          -2.40142e-09 -1.94369e-09 -1.32134e-09 -4.10517e-09 2.62236e-08 -2.80812e-09 -5.49626e-09 -1.80529e-09 -1.73026e-09 -1.10036e-09 -1.79951e-09 -2.10484e-09
          -3.12305e-09 -3.24962e-09 -4.10469e-09 -2.75111e-09 -1.536e-09 -1.77523e-09 -8.32118e-09 3.14168e-08 -8.07764e-10 -2.13256e-09 -3.83688e-09 -3.0036e-09
          -1.29854e-09 -1.88972e-09 -3.13117e-09 -4.2252e-09 -3.80517e-09 -6.9686e-09 -3.22204e-09 -2.03944e-09 -2.39785e-09 -1.98126e-09 3.04538e-08 2.41184e-10
          1.06193e-08 -6.42226e-09 -6.98473e-09 -5.49814e-09 -3.7786e-09 -3.88046e-09 -4.94667e-09 -3.32976e-09 -1.0165e-08 -2.46622e-09 -2.40284e-09 -3.1552e-09
          -1.08207e-08 6.10761e-10 -1.06614e-09 -3.0518e-08 -1.38486e-08 -1.87926e-08 -1.72828e-08 -1.21204e-08 -4.40889e-09 -5.75296e-09 -4.89866e-09 -1.66617e-08
          -1.16832e-09 -1.58307e-09 -3.47562e-09 -3.13018e-08 -3.96081e-08 -2.64978e-09 -5.47066e-08 -1.83143e-08 -3.90915e-08 -2.23374e-08 -2.42295e-08 -2.9513e-09
          -3.34518e-09 -4.46474e-09 -2.24267e-08 -8.91141e-10 -1.29316e-09 -3.75837e-09 -3.25774e-08 -3.57841e-08 -1.94833e-09 -2.04831e-08 -1.38055e-08 -6.3865e-08
          -1.80148e-08 -2.67059e-08 -2.86954e-09 -2.57813e-09 -4.87898e-09 -2.69706e-08 -7.67642e-10 -1.1017e-09 -3.90324e-09 -2.96386e-08 -3.29912e-08 -2.04277e-09
          -5.07179e-09 -6.66648e-09 -7.70993e-08 -1.3832e-08 -3.11831e-08 -2.7002e-09 -2.19592e-09 -4.86321e-09 -3.02719e-08 -9.81429e-10 -1.46788e-09 -4.39e-09
          -2.67449e-08 -2.97227e-08 -1.95434e-09 -2.05428e-09 -4.30787e-09 -7.52334e-08 -7.35407e-09 -4.84735e-08 -1.99002e-09 -1.61407e-09 -5.98917e-09 -2.89146e-08
          -9.35091e-10 -1.34725e-09 -4.77818e-09 -2.27201e-08 -2.88002e-08 -3.7136e-09 -1.49394e-09 -3.16384e-09 -6.78718e-08 -3.80821e-09 -6.66002e-08 -1.7068e-09
          -1.3198e-09 -9.70682e-09 -2.48123e-08 -1.15852e-09 -1.28293e-09 -5.16347e-09 -1.6828e-08 -2.68021e-08 -4.92951e-09 -1.17037e-09 -3.49769e-09 -5.97093e-08
          -2.53356e-09 -7.81083e-08 -2.96764e-09 -1.38345e-09 -1.2784e-08 -2.11208e-08 -2.17321e-09 -1.35577e-09 -5.41469e-09 -1.32273e-08 -2.52735e-08 -5.7798e-09
          -7.76317e-10 -6.67542e-09 -4.87147e-08 -2.16141e-09 -7.62224e-08 -1.00069e-08 -2.34533e-09 -1.38948e-08 -1.66668e-08 -5.77449e-09 -2.39105e-09 -5.83415e-09
          -1.16605e-08 -2.46364e-08 -4.70899e-09 -1.17072e-09 -1.05637e-08 -4.00175e-08 -2.86553e-09 -7.4254e-08 -1.2496e-08 -4.41415e-09 -1.3068e-08 -1.01874e-08
          -9.83566e-09 -5.50379e-09 -6.19299e-09 -1.09916e-08 -2.63547e-08 -3.35798e-09 -2.02086e-09 -9.56123e-09 -3.84339e-08 -1.3725e-09 -8.09996e-08 -1.37879e-08
          -2.9743e-09 -6.94217e-09 -3.68609e-09 -8.29376e-09 -6.83631e-09 -5.49119e-09 -8.6867e-09 -2.86671e-08 -3.14656e-09 -3.12769e-09 -7.13193e-09 -4.08867e-08
          -9.51296e-10 -8.06806e-08 -1.93451e-08 -5.54181e-09 -4.1063e-09 -2.0343e-09 -7.53368e-09 -8.72878e-09 -4.66597e-09 -7.56951e-09 -2.00047e-08 -3.79675e-09
          -3.89254e-09 -8.81742e-09 -4.32336e-08 -1.21835e-09 -7.15955e-08 -2.22743e-08 -8.72942e-09 -4.96436e-09 -4.51896e-09 -1.03401e-08 -1.30238e-08 -3.66876e-09
          -1.20339e-08 -1.08444e-08 -2.494e-09 -2.70316e-09 -1.08592e-08 -3.94515e-08 -2.90002e-09 -5.88513e-08 -2.34363e-08 -1.23388e-08 -3.494e-09 -3.92958e-09
          -9.70396e-09 -1.96866e-08 -2.74988e-09 -1.23503e-08 -8.27753e-09 -1.60181e-09 -2.20334e-09 -1.58414e-08 -2.92705e-08 -4.10288e-09 -4.75582e-08 -2.60798e-08
          -1.73872e-08 -3.17639e-09 -3.40078e-09 -6.50499e-09 -2.44248e-08 -2.2191e-09 -1.15298e-08 -6.62504e-09 -1.73599e-09 -1.64041e-09 -1.94591e-08 -1.93736e-08
          -4.09961e-09 -3.55713e-08 -2.71518e-08 -2.71321e-08 -3.28476e-09 -3.61163e-09 -7.59542e-09 -2.80946e-08 -2.4514e-09 -9.68783e-09 -4.60551e-09 -1.37507e-09
          -1.31104e-09 -2.04926e-08 -1.18515e-08 -3.78997e-09 -2.68883e-08 -2.0434e-08 -4.5693e-08 -3.33084e-09 -3.3801e-09 -9.31187e-09 -2.97691e-08 -3.0976e-09
          -7.61081e-09 -3.67245e-09 -1.58002e-09 -1.27133e-09 -1.94719e-08 -7.605e-09 -3.61544e-09 -2.1675e-08 -1.02572e-08 -6.00695e-08 -3.6669e-09 -4.2003e-09
          -1.14275e-08 -3.14389e-08 -3.4544e-09 -5.02546e-09 -2.49202e-09 -1.75307e-09 -1.44534e-09 -1.52703e-08 -6.63782e-09 -3.96697e-09 -2.08575e-08 -6.53604e-09
          -6.32208e-08 -4.66846e-09 -6.38473e-09 -1.28044e-08 -3.36523e-08 -4.90491e-09 -2.46853e-09 -1.33977e-09 -1.23666e-09 -1.3301e-09 -8.81518e-09 -6.05726e-09
          -4.25105e-09 -2.24807e-08 -6.32975e-09 -5.67031e-08 -7.74157e-09 -1.10385e-08 -1.77326e-08 -3.56458e-08 -6.19643e-09 -7.6475e-10 -5.68486e-10 -4.22672e-10
          -4.24479e-10 -2.44047e-09 -2.60188e-09 -2.12393e-09 -1.30381e-08 -6.54183e-09 -3.30288e-08 -1.4179e-08 -1.2419e-08 -1.41774e-08 -1.98139e-08 -3.32575e-09
        </DataArray>
        <DataArray type="Float32" Name="z[0]" NumberOfComponents="1" format="ascii">
          0.150578 0.150579 0.15058 0.150582 0.150582 0.150583 0.150584 0.150585 0.150585 0.150586 0.150587 0.150588
          0.150589 0.150591 0.150596 0.150581 0.150582 0.150583 0.150585 0.150586 0.150587 0.150587 0.150588 0.150588
          0.150589 0.15059 0.150591 0.150593 0.150595 0.150599 0.150584 0.150585 0.150587 0.150588 0.150589 0.15059
          0.15059 0.150591 0.150592 0.150593 0.150593 0.150595 0.150596 0.150598 0.150602 0.150588 0.150589 0.15059
          0.150591 0.150592 0.150593 0.150594 0.150594 0.150595 0.150596 0.150597 0.150598 0.150599 0.150601 0.150605
          0.150591 0.150592 0.150593 0.150594 0.150595 0.150596 0.150597 0.150597 0.150598 0.150599 0.1506 0.150601
          0.150602 0.150604 0.150609 0.150594 0.150595 0.150596 0.150597 0.150598 0.150599 0.1506 0.150628 0.150601
          0.150602 0.150603 0.150604 0.150605 0.150607 0.150612 0.150597 0.150598 0.150599 0.150601 0.150601 0.150602