<?xml version="1.0"?>
<VTKFile type="UnstructuredGrid" version="0.1" byte_order="LittleEndian">
  <UnstructuredGrid>
    <Piece NumberOfCells="360" NumberOfPoints="800">
      <CellData Scalars="pressure[0]">
        <DataArray type="Float32" Name="pressure[0]" NumberOfComponents="1" format="ascii">
          2.08906e+07 2.09051e+07 2.13984e+07 2.19164e+07 2.23007e+07 2.27559e+07 2.29029e+07 2.29558e+07 2.30202e+07 2.30909e+07 2.33104e+07 2.36755e+07
          2.39467e+07 2.46137e+07 2.53885e+07 2.09344e+07 2.09489e+07 2.14922e+07 2.20272e+07 2.24547e+07 2.29356e+07 2.3045e+07 2.30859e+07 2.31531e+07
          2.32351e+07 2.35499e+07 2.39227e+07 2.4137e+07 2.48147e+07 2.55561e+07 2.09783e+07 2.09928e+07 2.15635e+07 2.21626e+07 2.254e+07 2.29932e+07
          2.31272e+07 2.31893e+07 2.32809e+07 2.33995e+07 2.38355e+07 2.42683e+07 2.44656e+07 2.50747e+07 2.57704e+07 2.10227e+07 2.10376e+07 2.14319e+07
          2.22925e+07 2.26581e+07 2.30925e+07 2.32155e+07 2.32721e+07 2.34245e+07 2.36273e+07 2.42173e+07 2.46914e+07 2.48685e+07 2.53802e+07 2.6038e+07
          2.11106e+07 2.11355e+07 1.97727e+07 2.23824e+07 2.2825e+07 2.32995e+07 2.33827e+07 2.34311e+07 2.37072e+07 2.4131e+07 2.46739e+07 2.50924e+07
          2.52647e+07 2.57229e+07 2.63e+07 2.13043e+07 2.13473e+07 2.18458e+07 2.27661e+07 2.32831e+07 2.38962e+07 2.39635e+07 2.40221e+07 2.42753e+07
          2.47151e+07 2.5195e+07 2.54466e+07 2.56311e+07 2.6069e+07 2.65934e+07 2.15505e+07 2.16e+07 2.245e+07 2.32685e+07 2.39786e+07 2.45182e+07
          2.45979e+07 2.46835e+07 2.48353e+07 2.52801e+07 2.5654e+07 2.57532e+07 2.59297e+07 2.64411e+07 2.70016e+07 2.19009e+07 2.19543e+07 2.29853e+07
          2.38054e+07 2.46109e+07 2.50975e+07 2.51567e+07 2.52162e+07 2.53636e+07 2.57092e+07 2.59503e+07 2.60224e+07 2.62611e+07 2.68213e+07 2.75649e+07
          2.24082e+07 2.24704e+07 2.34612e+07 2.42866e+07 2.52733e+07 2.56066e+07 2.57181e+07 2.58298e+07 2.59388e+07 2.614e+07 2.62516e+07 2.62787e+07
          2.65266e+07 2.72464e+07 2.81254e+07 2.30246e+07 2.31257e+07 2.37636e+07 2.43833e+07 2.5823e+07 2.60489e+07 2.62949e+07 2.65219e+07 2.65475e+07
          2.65797e+07 2.66138e+07 2.66409e+07 2.69025e+07 2.76711e+07 2.84577e+07 2.39399e+07 2.40696e+07 2.43695e+07 2.48022e+07 2.62027e+07 2.63689e+07
          2.67581e+07 2.70889e+07 2.70283e+07 2.69959e+07 2.69804e+07 2.70172e+07 2.7239e+07 2.80193e+07 2.87056e+07 2.46193e+07 2.4665e+07 2.48908e+07
          2.52621e+07 2.65702e+07 2.66801e+07 2.7224e+07 2.76599e+07 2.77017e+07 2.73941e+07 2.73594e+07 2.73901e+07 2.76168e+07 2.83799e+07 2.94629e+07
          2.52099e+07 2.54293e+07 2.5501e+07 2.58577e+07 2.70948e+07 2.7211e+07 2.77903e+07 2.82905e+07 2.83839e+07 2.82617e+07 2.80735e+07 2.84081e+07
          2.89887e+07 2.99561e+07 3.0182e+07 2.63347e+07 2.63911e+07 2.626e+07 2.66408e+07 2.79611e+07 2.80759e+07 2.85529e+07 2.89254e+07 2.89937e+07
          2.90549e+07 2.90812e+07 2.95856e+07 3.02892e+07 3.08455e+07 3.06136e+07 2.71505e+07 2.71487e+07 2.71982e+07 2.82994e+07 2.88236e+07 2.88885e+07
          2.92034e+07 2.943e+07 2.94814e+07 2.95605e+07 2.97123e+07 3.04974e+07 3.11093e+07 3.12872e+07 3.11293e+07 2.78601e+07 2.78808e+07 2.79836e+07
          2.90788e+07 2.93308e+07 2.93863e+07 2.96092e+07 2.97551e+07 2.98048e+07 2.98798e+07 3.01783e+07 3.09235e+07 3.14778e+07 3.17912e+07 3.16158e+07
          2.85916e+07 2.86411e+07 2.89906e+07 2.96123e+07 2.9741e+07 2.97791e+07 2.98928e+07 2.99931e+07 3.00413e+07 3.0105e+07 3.05039e+07 3.13904e+07
          3.19871e+07 3.22922e+07 3.20612e+07 2.91788e+07 2.92386e+07 2.96125e+07 2.98986e+07 3.00237e+07 3.00678e+07 3.01568e+07 3.0232e+07 3.02822e+07
          3.03403e+07 3.08313e+07 3.17684e+07 3.23779e+07 3.26265e+07 3.2505e+07 2.94947e+07 2.95613e+07 2.97829e+07 3.01047e+07 3.02708e+07 3.03184e+07
          3.0397e+07 3.04637e+07 3.05097e+07 3.05656e+07 3.11058e+07 3.21416e+07 3.27658e+07 3.29511e+07 3.31184e+07 2.97471e+07 2.98058e+07 3.00048e+07
          3.03247e+07 3.04881e+07 3.05363e+07 3.06129e+07 3.06764e+07 3.07229e+07 3.07852e+07 3.13204e+07 3.24623e+07 3.31482e+07 3.32933e+07 3.37018e+07
          2.99587e+07 3.00254e+07 3.01835e+07 3.04793e+07 3.06824e+07 3.07356e+07 3.08185e+07 3.0886e+07 3.09487e+07 3.10278e+07 3.17852e+07 3.30068e+07
          3.35031e+07 3.36567e+07 3.41569e+07 3.01612e+07 3.02306e+07 3.03714e+07 3.06603e+07 3.08673e+07 3.09259e+07 3.10225e+07 3.11004e+07 3.11822e+07
          3.12736e+07 3.22964e+07 3.35659e+07 3.38712e+07 3.40586e+07 3.46001e+07 3.03457e+07 3.0409e+07 3.05787e+07 3.08832e+07 3.10522e+07 3.11199e+07
          3.1234e+07 3.13247e+07 3.14309e+07 3.15454e+07 3.27304e+07 3.4028e+07 3.42896e+07 3.44997e+07 3.49186e+07 3.05141e+07 3.05742e+07 3.07231e+07
          3.10283e+07 3.12451e+07 3.13145e+07 3.14434e+07 3.15493e+07 3.16794e+07 3.18342e+07 3.32094e+07 3.44301e+07 3.47207e+07 3.49108e+07 3.52004e+07
        </DataArray>
        <DataArray type="Float32" Name="pressure[1]" NumberOfComponents="1" format="ascii">
          2.08906e+07 2.09051e+07 2.13984e+07 2.19164e+07 2.23007e+07 2.27559e+07 2.29029e+07 2.29558e+07 2.30202e+07 2.30909e+07 2.33104e+07 2.36755e+07
          2.39467e+07 2.46137e+07 2.53885e+07 2.09344e+07 2.09489e+07 2.14922e+07 2.20272e+07 2.24547e+07 2.29356e+07 2.3045e+07 2.30859e+07 2.31531e+07
          2.32351e+07 2.35499e+07 2.39227e+07 2.4137e+07 2.48147e+07 2.55561e+07 2.09783e+07 2.09928e+07 2.15635e+07 2.21626e+07 2.254e+07 2.29932e+07
          2.31272e+07 2.31893e+07 2.32809e+07 2.33995e+07 2.38355e+07 2.42683e+07 2.44656e+07 2.50747e+07 2.57704e+07 2.10227e+07 2.10376e+07 2.14319e+07
          2.22925e+07 2.26581e+07 2.30925e+07 2.32155e+07 2.32721e+07 2.34245e+07 2.36273e+07 2.42173e+07 2.46914e+07 2.48685e+07 2.53802e+07 2.6038e+07
          2.11106e+07 2.11355e+07 1.97727e+07 2.23824e+07 2.2825e+07 2.32995e+07 2.33827e+07 2.34311e+07 2.37072e+07 2.4131e+07 2.46739e+07 2.50924e+07
          2.52647e+07 2.57229e+07 2.63e+07 2.13043e+07 2.13473e+07 2.18458e+07 2.27661e+07 2.32831e+07 2.38962e+07 2.39635e+07 2.40221e+07 2.42753e+07
          2.47151e+07 2.5195e+07 2.54466e+07 2.56311e+07 2.6069e+07 2.65934e+07 2.15505e+07 2.16e+07 2.245e+07 2.32685e+07 2.39786e+07 2.45182e+07
          2.45979e+07 2.46835e+07 2.48353e+07 2.52801e+07 2.5654e+07 2.57532e+07 2.59297e+07 2.64411e+07 2.70016e+07 2.19009e+07 2.19543e+07 2.29853e+07
          2.38054e+07 2.46109e+07 2.50975e+07 2.51567e+07 2.52162e+07 2.53636e+07 2.57092e+07 2.59503e+07 2.60224e+07 2.62611e+07 2.68213e+07 2.75649e+07
          2.24082e+07 2.24704e+07 2.34612e+07 2.42866e+07 2.52733e+07 2.56066e+07 2.57181e+07 2.58298e+07 2.59388e+07 2.614e+07 2.62516e+07 2.62787e+07
          2.65266e+07 2.72464e+07 2.81254e+07 2.30246e+07 2.31257e+07 2.37636e+07 2.43833e+07 2.5823e+07 2.60489e+07 2.62949e+07 2.65219e+07 2.65475e+07
          2.65797e+07 2.66138e+07 2.66409e+07 2.69025e+07 2.76711e+07 2.84577e+07 2.39399e+07 2.40696e+07 2.43695e+07 2.48022e+07 2.62027e+07 2.63689e+07
          2.67581e+07 2.70889e+07 2.70283e+07 2.69959e+07 2.69804e+07 2.70172e+07 2.7239e+07 2.80193e+07 2.87056e+07 2.46193e+07 2.4665e+07 2.48908e+07
          2.52621e+07 2.65702e+07 2.66801e+07 2.7224e+07 2.76599e+07 2.77017e+07 2.73941e+07 2.73594e+07 2.73901e+07 2.76168e+07 2.83799e+07 2.94629e+07
          2.52099e+07 2.54293e+07 2.5501e+07 2.58577e+07 2.70948e+07 2.7211e+07 2.77903e+07 2.82905e+07 2.83839e+07 2.82617e+07 2.80735e+07 2.84081e+07
          2.89887e+07 2.99561e+07 3.0182e+07 2.63347e+07 2.63911e+07 2.626e+07 2.66408e+07 2.79611e+07 2.80759e+07 2.85529e+07 2.89254e+07 2.89937e+07
          2.90549e+07 2.90812e+07 2.95856e+07 3.02892e+07 3.08455e+07 3.06136e+07 2.71505e+07 2.71487e+07 2.71982e+07 2.82994e+07 2.88236e+07 2.88885e+07
          2.92034e+07 2.943e+07 2.94814e+07 2.95605e+07 2.97123e+07 3.04974e+07 3.11093e+07 3.12872e+07 3.11293e+07 2.78601e+07 2.78808e+07 2.79836e+07
          2.90788e+07 2.93308e+07 2.93863e+07 2.96092e+07 2.97551e+07 2.98048e+07 2.98798e+07 3.01783e+07 3.09235e+07 3.14778e+07 3.17912e+07 3.16158e+07
          2.85916e+07 2.86411e+07 2.89906e+07 2.96123e+07 2.9741e+07 2.97791e+07 2.98928e+07 2.99931e+07 3.00413e+07 3.0105e+07 3.05039e+07 3.13904e+07
          3.19871e+07 3.22922e+07 3.20612e+07 2.91788e+07 2.92386e+07 2.96125e+07 2.98986e+07 3.00237e+07 3.00678e+07 3.01568e+07 3.0232e+07 3.02822e+07
          3.03403e+07 3.08313e+07 3.17684e+07 3.23779e+07 3.26265e+07 3.2505e+07 2.94947e+07 2.95613e+07 2.97829e+07 3.01047e+07 3.02708e+07 3.03184e+07
          3.0397e+07 3.04637e+07 3.05097e+07 3.05656e+07 3.11058e+07 3.21416e+07 3.27658e+07 3.29511e+07 3.31184e+07 2.97471e+07 2.98058e+07 3.00048e+07
          3.03247e+07 3.04881e+07 3.05363e+07 3.06129e+07 3.06764e+07 3.07229e+07 3.07852e+07 3.13204e+07 3.24623e+07 3.31482e+07 3.32933e+07 3.37018e+07
          2.99587e+07 3.00254e+07 3.01835e+07 3.04793e+07 3.06824e+07 3.07356e+07 3.08185e+07 3.0886e+07 3.09487e+07 3.10278e+07 3.17852e+07 3.30068e+07
          3.35031e+07 3.36567e+07 3.41569e+07 3.01612e+07 3.02306e+07 3.03714e+07 3.06603e+07 3.08673e+07 3.09259e+07 3.10225e+07 3.11004e+07 3.11822e+07
          3.12736e+07 3.22964e+07 3.35659e+07 3.38712e+07 3.40586e+07 3.46001e+07 3.03457e+07 3.0409e+07 3.05787e+07 3.08832e+07 3.10522e+07 3.11199e+07
          3.1234e+07 3.13247e+07 3.14309e+07 3.15454e+07 3.27304e+07 3.4028e+07 3.42896e+07 3.44997e+07 3.49186e+07 3.05141e+07 3.05742e+07 3.07231e+07
          3.10283e+07 3.12451e+07 3.13145e+07 3.14434e+07 3.15493e+07 3.16794e+07 3.18342e+07 3.32094e+07 3.44301e+07 3.47207e+07 3.49108e+07 3.52004e+07
        </DataArray>
        <DataArray type="Float32" Name="pressure[2]" NumberOfComponents="1" format="ascii">
          2.08906e+07 2.09051e+07 2.13984e+07 2.19164e+07 2.23007e+07 2.27559e+07 2.29029e+07 2.29558e+07 2.30202e+07 2.30909e+07 2.33104e+07 2.36755e+07
          2.39467e+07 2.46137e+07 2.53885e+07 2.09344e+07 2.09489e+07 2.14922e+07 2.20272e+07 2.24547e+07 2.29356e+07 2.3045e+07 2.30859e+07 2.31531e+07
          2.32351e+07 2.35499e+07 2.39227e+07 2.4137e+07 2.48147e+07 2.55561e+07 2.09783e+07 2.09928e+07 2.15635e+07 2.21626e+07 2.254e+07 2.29932e+07
          2.31272e+07 2.31893e+07 2.32809e+07 2.33995e+07 2.38355e+07 2.42683e+07 2.44656e+07 2.50747e+07 2.57704e+07 2.10227e+07 2.10376e+07 2.14319e+07
          2.22925e+07 2.26581e+07 2.30925e+07 2.32155e+07 2.32721e+07 2.34245e+07 2.36273e+07 2.42173e+07 2.46914e+07 2.48685e+07 2.53802e+07 2.6038e+07
          2.11106e+07 2.11355e+07 1.97727e+07 2.23824e+07 2.2825e+07 2.32995e+07 2.33827e+07 2.34311e+07 2.37072e+07 2.4131e+07 2.46739e+07 2.50924e+07
          2.52647e+07 2.57229e+07 2.63e+07 2.13043e+07 2.13473e+07 2.18458e+07 2.27661e+07 2.32831e+07 2.38962e+07 2.39635e+07 2.40221e+07 2.42753e+07
          2.47151e+07 2.5195e+07 2.54466e+07 2.56311e+07 2.6069e+07 2.65934e+07 2.15505e+07 2.16e+07 2.245e+07 2.32685e+07 2.39786e+07 2.45182e+07
          2.45979e+07 2.46835e+07 2.48353e+07 2.52801e+07 2.5654e+07 2.57532e+07 2.59297e+07 2.64411e+07 2.70016e+07 2.19009e+07 2.19543e+07 2.29853e+07
          2.38054e+07 2.46109e+07 2.50975e+07 2.51567e+07 2.52162e+07 2.53636e+07 2.57092e+07 2.59503e+07 2.60224e+07 2.62611e+07 2.68213e+07 2.75649e+07
          2.24082e+07 2.24704e+07 2.34612e+07 2.42866e+07 2.52733e+07 2.56066e+07 2.57181e+07 2.58298e+07 2.59388e+07 2.614e+07 2.62516e+07 2.62787e+07
          2.65266e+07 2.72464e+07 2.81254e+07 2.30246e+07 2.31257e+07 2.37636e+07 2.43833e+07 2.5823e+07 2.60489e+07 2.62949e+07 2.65219e+07 2.65475e+07
          2.65797e+07 2.66138e+07 2.66409e+07 2.69025e+07 2.76711e+07 2.84577e+07 2.39399e+07 2.40696e+07 2.43695e+07 2.48022e+07 2.62027e+07 2.63689e+07
          2.67581e+07 2.70889e+07 2.70283e+07 2.69959e+07 2.69804e+07 2.70172e+07 2.7239e+07 2.80193e+07 2.87056e+07 2.46193e+07 2.4665e+07 2.48908e+07
          2.52621e+07 2.65702e+07 2.66801e+07 2.7224e+07 2.76599e+07 2.77017e+07 2.73941e+07 2.73594e+07 2.73901e+07 2.76168e+07 2.83799e+07 2.94629e+07
          2.52099e+07 2.54293e+07 2.5501e+07 2.58577e+07 2.70948e+07 2.7211e+07 2.77903e+07 2.82905e+07 2.83839e+07 2.82617e+07 2.80735e+07 2.84081e+07
          2.89887e+07 2.99561e+07 3.0182e+07 2.63347e+07 2.63911e+07 2.626e+07 2.66408e+07 2.79611e+07 2.80759e+07 2.85529e+07 2.89254e+07 2.89937e+07
          2.90549e+07 2.90812e+07 2.95856e+07 3.02892e+07 3.08455e+07 3.06136e+07 2.71505e+07 2.71487e+07 2.71982e+07 2.82994e+07 2.88236e+07 2.88885e+07
          2.92034e+07 2.943e+07 2.94814e+07 2.95605e+07 2.97123e+07 3.04974e+07 3.11093e+07 3.12872e+07 3.11293e+07 2.78601e+07 2.78808e+07 2.79836e+07
          2.90788e+07 2.93308e+07 2.93863e+07 2.96092e+07 2.97551e+07 2.98048e+07 2.98798e+07 3.01783e+07 3.09235e+07 3.14778e+07 3.17912e+07 3.16158e+07
          2.85916e+07 2.86411e+07 2.89906e+07 2.96123e+07 2.9741e+07 2.97791e+07 2.98928e+07 2.99931e+07 3.00413e+07 3.0105e+07 3.05039e+07 3.13904e+07
          3.19871e+07 3.22922e+07 3.20612e+07 2.91788e+07 2.92386e+07 2.96125e+07 2.98986e+07 3.00237e+07 3.00678e+07 3.01568e+07 3.0232e+07 3.02822e+07
          3.03403e+07 3.08313e+07 3.17684e+07 3.23779e+07 3.26265e+07 3.2505e+07 2.94947e+07 2.95613e+07 2.97829e+07 3.01047e+07 3.02708e+07 3.03184e+07
          3.0397e+07 3.04637e+07 3.05097e+07 3.05656e+07 3.11058e+07 3.21416e+07 3.27658e+07 3.29511e+07 3.31184e+07 2.97471e+07 2.98058e+07 3.00048e+07
          3.03247e+07 3.04881e+07 3.05363e+07 3.06129e+07 3.06764e+07 3.07229e+07 3.07852e+07 3.13204e+07 3.24623e+07 3.31482e+07 3.32933e+07 3.37018e+07
          2.99587e+07 3.00254e+07 3.01835e+07 3.04793e+07 3.06824e+07 3.07356e+07 3.08185e+07 3.0886e+07 3.09487e+07 3.10278e+07 3.17852e+07 3.30068e+07
          3.35031e+07 3.36567e+07 3.41569e+07 3.01612e+07 3.02306e+07 3.03714e+07 3.06603e+07 3.08673e+07 3.09259e+07 3.10225e+07 3.11004e+07 3.11822e+07
          3.12736e+07 3.22964e+07 3.35659e+07 3.38712e+07 3.40586e+07 3.46001e+07 3.03457e+07 3.0409e+07 3.05787e+07 3.08832e+07 3.10522e+07 3.11199e+07
          3.1234e+07 3.13247e+07 3.14309e+07 3.15454e+07 3.27304e+07 3.4028e+07 3.42896e+07 3.44997e+07 3.49186e+07 3.05141e+07 3.05742e+07 3.07231e+07
          3.10283e+07 3.12451e+07 3.13145e+07 3.14434e+07 3.15493e+07 3.16794e+07 3.18342e+07 3.32094e+07 3.44301e+07 3.47207e+07 3.49108e+07 3.52004e+07
        </DataArray>
        <DataArray type="Float32" Name="velocity[0]" NumberOfComponents="1" format="ascii">
          8.763e-11 2.96338e-08 2.94072e-10 3.48321e-09 -1.4365e-10 -1.30444e-09 -2.10581e-10 1.44936e-09 2.06621e-09 -5.83362e-10 -2.10788e-09 -3.10197e-09
          -2.20134e-09 -6.59874e-10 -2.78871e-09 -1.06913e-09 8.56929e-08 6.06582e-10 3.75849e-09 3.37449e-10 2.10874e-09 8.87874e-09 6.37011e-09 4.47235e-09
          -2.93048e-09 -4.40139e-09 -1.30002e-08 -8.06675e-09 -2.03936e-09 -7.38357e-09 -9.3289e-09 1.30355e-07 1.19637e-09 3.40351e-08 8.38639e-10 5.91615e-09
          1.61198e-08 1.26354e-08 2.2208e-09 -7.16462e-09 -5.41431e-09 -3.24227e-08 -1.12557e-08 -4.21828e-09 -1.10076e-08 -2.48267e-08 1.6595e-07 6.24448e-09
          1.19028e-07 -4.57843e-10 -4.97602e-09 1.03291e-09 4.83849e-09 -4.95779e-09 -1.54405e-08 -7.27749e-09 -5.70826e-08 -7.96452e-09 -5.9892e-09 -1.48979e-08
          -9.50167e-08 -1.82694e-08 -1.27389e-10 -3.24944e-08 -5.43096e-09 -4.07481e-08 -5.02124e-08 -4.99134e-08 -1.19774e-08 -1.66292e-08 -1.02908e-08 -9.67734e-08
          -4.03997e-09 -5.44339e-09 -1.82259e-08 -1.65017e-07 -1.99691e-07 -6.6765e-09 -1.81072e-07 -1.28797e-08 -1.10503e-07 -7.79739e-08 -1.13492e-07 -1.30423e-08
          -8.55188e-09 -1.48737e-08 -1.38112e-07 -2.39522e-09 -4.32061e-09 -2.03945e-08 -1.66005e-07 -1.74261e-07 -2.38578e-09 -8.36283e-08 -1.46064e-08 -1.81057e-07
          -5.94594e-08 -1.75116e-07 -1.01173e-08 -3.88697e-09 -1.76479e-08 -1.6164e-07 -1.98529e-09 -4.17325e-09 -2.1857e-08 -1.51068e-07 -1.61114e-07 -2.65815e-09
          -2.62914e-08 -1.1855e-08 -2.18074e-07 -3.5161e-08 -2.53238e-07 -7.39742e-09 -2.69035e-09 -1.90299e-08 -1.7314e-07 -1.58669e-09 -4.1927e-09 -2.35134e-08
          -1.35506e-07 -1.45851e-07 -2.49595e-09 -5.64737e-09 -9.78515e-09 -2.34409e-07 -1.27395e-08 -3.20474e-07 -5.51905e-09 -2.84455e-09 -3.05372e-08 -1.61321e-07
          -1.47977e-09 -3.70576e-09 -2.57275e-08 -1.08484e-07 -1.33071e-07 -8.59863e-09 -9.47315e-10 -7.03381e-09 -2.35845e-07 -4.1985e-09 -3.88576e-07 -4.66415e-09
          -3.2638e-09 -5.07839e-08 -1.31141e-07 -2.23872e-09 -3.04921e-09 -2.79529e-08 -7.8479e-08 -1.20084e-07 -1.90884e-08 -2.05365e-09 -6.04197e-09 -2.31027e-07
          -1.40225e-09 -4.51624e-07 -5.01866e-09 -4.39197e-09 -6.42468e-08 -9.88458e-08 -5.13069e-09 -3.35054e-09 -2.99539e-08 -6.7438e-08 -8.05084e-08 -3.41975e-08
          -1.86152e-09 -8.65676e-09 -2.31472e-07 -1.15469e-09 -4.92279e-07 -1.513e-08 -5.56016e-09 -6.61947e-08 -5.58232e-08 -1.42765e-08 -7.21418e-09 -3.14345e-08
          -5.42338e-08 -6.22836e-08 -4.08487e-08 -3.94548e-09 -1.33193e-08 -2.18585e-07 -1.66665e-09 -5.08164e-07 -4.60708e-08 -7.51582e-09 -4.76339e-08 -1.94413e-08
          -2.88532e-08 -1.45429e-08 -3.20434e-08 -4.06141e-08 -8.05132e-08 -2.85844e-08 -5.29747e-09 -1.96311e-08 -2.03453e-07 -1.72375e-09 -4.86521e-07 -8.19009e-08
          -1.40134e-08 -2.29897e-08 -7.16125e-09 -3.39858e-08 -2.61846e-08 -3.06732e-08 -4.65733e-08 -7.66101e-08 -1.63882e-08 -3.86242e-09 -2.63744e-08 -2.02563e-07
          -1.2324e-09 -4.44298e-07 -9.95064e-08 -2.27249e-08 -1.40931e-08 -3.72697e-09 -3.11191e-08 -4.07379e-08 -2.73017e-08 -5.70219e-08 -6.06041e-08 -8.60564e-09
          -3.44968e-09 -3.24567e-08 -2.00614e-07 -1.54254e-09 -3.78614e-07 -1.0423e-07 -3.16855e-08 -8.41023e-09 -4.95196e-09 -3.48933e-08 -5.97509e-08 -2.28978e-08
          -6.11463e-08 -4.71467e-08 -4.31417e-09 -4.53478e-09 -4.6126e-08 -1.75946e-07 -2.97615e-09 -2.9966e-07 -1.05001e-07 -4.92099e-08 -3.49514e-09 -4.8587e-09
          -2.84289e-08 -8.85232e-08 -1.81328e-08 -5.99243e-08 -3.71077e-08 -1.83926e-09 -3.1191e-09 -6.84918e-08 -1.27004e-07 -4.55131e-09 -2.28105e-07 -1.12971e-07
          -7.41845e-08 -2.47746e-09 -3.28078e-09 -1.84345e-08 -1.15599e-07 -1.41192e-08 -5.38932e-08 -2.65065e-08 -1.16504e-09 -1.22774e-09 -8.5247e-08 -8.10087e-08
          -4.79822e-09 -1.62265e-07 -1.1259e-07 -1.1614e-07 -1.44289e-09 -2.70187e-09 -2.4085e-08 -1.32063e-07 -1.23425e-08 -4.4649e-08 -1.78502e-08 -1.3766e-09
          -5.82776e-10 -9.13102e-08 -4.63011e-08 -4.01779e-09 -1.18641e-07 -7.26953e-08 -2.00779e-07 -2.51274e-09 -3.8383e-09 -3.58076e-08 -1.40006e-07 -1.32711e-08
          -3.41103e-08 -1.20325e-08 -1.27737e-09 -1.46857e-10 -8.52543e-08 -2.43355e-08 -3.45641e-09 -9.32805e-08 -3.03765e-08 -2.78237e-07 -3.93778e-09 -7.06847e-09
          -4.35687e-08 -1.46278e-07 -1.52393e-08 -2.14534e-08 -6.13762e-09 -2.03731e-09 -7.83572e-10 -6.32003e-08 -1.66151e-08 -3.3822e-09 -8.7899e-08 -1.64642e-08
          -2.93967e-07 -3.5932e-09 -1.35837e-08 -4.76876e-08 -1.52647e-07 -1.89041e-08 -1.00149e-08 -2.45456e-09 -9.19196e-10 -5.18447e-10 -3.16206e-08 -1.24283e-08
          -2.77617e-09 -9.26353e-08 -1.32592e-08 -2.53178e-07 -4.98578e-09 -2.34226e-08 -6.24962e-08 -1.58998e-07 -2.46741e-08 -2.65375e-09 -5.53217e-10 2.0331e-10
          7.61233e-11 -7.4754e-09 -4.74761e-09 -1.01632e-09 -4.7188e-08 -6.17411e-09 -1.09439e-07 -3.28909e-09 -1.42094e-08 -3.73066e-08 -8.17052e-08 -1.38523e-08
        </DataArray>
        <DataArray type="Float32" Name="velocity[1]" NumberOfComponents="1" format="ascii">
          -1.36187e-26 4.68536e-24 1.00734e-25 5.41331e-25 2.23249e-26 0 3.27268e-26 -2.09616e-25 1.19498e-26 5.93061e-24 -3.79595e-24 1.78333e-26
          2.4465e-24 -9.64661e-25 4.33499e-25 1.93393e-25 4.03705e-24 9.50669e-26 -4.98548e-25 -1.68755e-25 7.63569e-24 1.39825e-24 4.80612e-25 -7.31341e-24
          -8.39296e-26 0 -1.94982e-26 2.34571e-26 1.38725e-27 2.80698e-25 1.09027e-24 -6.28951e-24 -1.39774e-24 5.2039e-24 -2.00998e-25 0
          2.99159e-25 -4.56899e-25 -4.02745e-25 0 7.34054e-24 -1.17955e-23 0 1.12986e-24 -2.82406e-25 2.71396e-24 1.08086e-23 -1.31558e-24
          -1.139e-23 2.2808e-25 1.0047e-23 -2.34091e-23 2.70797e-23 -4.16574e-24 1.13214e-24 3.82694e-24 -4.76421e-24 2.98818e-24 -1.28833e-24 9.66227e-25
          -1.22932e-25 -6.2655e-23 5.30921e-24 1.17515e-23 -4.47914e-25 -4.05446e-24 4.58663e-26 -7.15887e-26 -3.9078e-25 -7.05742e-24 4.54549e-24 -8.58059e-24
          -6.79738e-28 1.33242e-25 -1.51383e-24 -1.51412e-25 6.26492e-24 -4.78969e-25 -2.00699e-25 -4.098e-25 -6.53991e-24 0 -5.24998e-27 3.61001e-25
          5.72179e-25 -3.91076e-25 6.95687e-24 -1.29657e-24 7.69377e-25 1.51368e-24 -9.46518e-25 1.0556e-24 0 7.01933e-24 -3.37012e-25 -1.111e-23
          8.93431e-26 7.23018e-27 -2.22172e-24 -2.81103e-27 -1.47527e-27 -2.06833e-27 1.98738e-26 -3.70527e-29 -1.65572e-24 -2.11875e-25 1.18324e-23 1.15935e-24
          4.37687e-24 3.66857e-26 1.44435e-23 7.34433e-26 4.28016e-26 3.68115e-25 -2.01387e-27 -2.78783e-24 -1.27588e-23 -2.09311e-28 -3.2916e-25 1.91315e-24
          -1.43897e-24 -8.5212e-24 -1.9771e-26 -1.2755e-24 -1.92317e-25 2.66065e-24 0 0 1.22632e-25 1.4772e-28 4.05909e-25 4.18755e-24
          -4.60101e-28 6.01648e-26 -8.24402e-29 -9.91342e-24 1.17075e-24 1.29366e-24 -1.60418e-25 -2.02182e-24 3.00565e-24 -5.61715e-24 5.71986e-24 -2.40591e-26
          -4.258e-26 4.98077e-26 3.50707e-24 -7.65351e-25 0 -2.08521e-24 3.97375e-24 1.93794e-25 6.15625e-25 -1.71475e-25 1.86781e-24 2.49669e-27
          -3.63733e-24 8.1701e-24 7.71534e-26 1.33282e-25 -3.7402e-25 7.44256e-24 1.70279e-24 -2.74754e-25 1.37377e-25 -5.23044e-24 9.80834e-24 -1.74756e-24
          -9.20909e-26 -1.34308e-24 -1.80464e-23 2.94472e-26 2.23998e-24 -3.32932e-24 -4.93924e-26 1.36422e-24 3.07901e-24 -1.74699e-24 1.0025e-24 -9.29726e-26
          3.19889e-24 3.77275e-24 0 -2.7733e-25 3.99092e-25 2.12876e-24 5.00197e-26 2.35665e-25 -3.31385e-24 1.30569e-27 -2.3825e-24 -8.15394e-25
          1.24053e-24 -8.16496e-25 -1.5838e-29 -8.43528e-26 4.92303e-28 8.7036e-25 1.34769e-25 3.93583e-28 1.49006e-23 -4.07314e-26 -3.59261e-24 5.56694e-24
          -4.95842e-25 2.38055e-24 2.11832e-24 -4.30303e-24 3.28359e-29 -2.27625e-24 -3.11339e-24 -5.3035e-24 -1.57448e-27 3.78038e-25 4.66007e-25 7.20241e-28
          -3.51172e-26 -7.31924e-24 1.93551e-24 0 0 2.97548e-25 3.56817e-24 -4.60644e-25 4.24305e-24 0 1.18531e-24 0
          -3.13894e-25 4.79712e-25 4.10935e-28 8.33171e-26 -7.24211e-24 7.41774e-29 2.55296e-28 -1.43559e-29 3.78396e-24 -1.32358e-28 -1.12603e-24 -1.9668e-24
          4.06878e-29 9.06142e-25 4.89701e-28 -7.74239e-26 1.64533e-24 -9.2665e-24 0 -9.5859e-24 0 -1.80182e-28 2.79226e-24 -3.46337e-24
          -1.5942e-24 2.4116e-28 1.22634e-24 0 3.2105e-24 0 3.91124e-25 1.55299e-24 4.4801e-24 1.05037e-25 -6.09177e-24 -5.19388e-24
          -1.95108e-24 1.66062e-25 4.86939e-26 -5.89611e-29 -1.61074e-24 -9.6795e-25 3.82793e-24 -1.95547e-24 2.12143e-24 -1.72424e-24 7.73289e-25 7.7875e-24
          -6.67182e-26 -4.14026e-24 9.46335e-24 4.98044e-24 -2.99436e-24 6.57034e-26 8.37421e-25 -4.17449e-28 9.50219e-25 9.46108e-29 -3.47466e-24 7.53541e-25
          -1.5795e-24 3.38129e-25 -2.40932e-24 -1.08886e-25 -5.27897e-24 -4.7713e-24 8.58565e-24 2.44177e-25 3.20994e-24 9.84253e-25 -3.24546e-25 -7.88166e-25
          -9.20961e-25 5.53257e-25 0 -3.55897e-26 -1.11029e-24 3.98612e-24 -7.00843e-24 7.00864e-24 -5.1512e-24 6.46248e-28 0 0
          2.21913e-25 -5.8873e-28 1.25609e-24 -1.04608e-24 -1.09986e-24 1.01425e-24 -1.7028e-24 -7.79892e-25 -1.19335e-24 2.11191e-26 4.65736e-25 -3.36161e-24
          1.21621e-23 -2.33352e-25 -5.85397e-24 4.1787e-25 8.52237e-25 -1.22913e-28 -7.31417e-25 -2.09375e-28 -2.2172e-28 1.03551e-25 -2.59091e-24 4.56141e-25
          -1.15554e-25 9.18422e-24 -3.82018e-24 0 -2.47476e-25 -7.76217e-25 5.95485e-24 -6.8663e-25 0 -4.12616e-25 -2.12758e-28 -3.36013e-25
          5.70168e-25 -1.16149e-24 -1.9397e-24 -3.16099e-25 -2.48962e-24 9.59529e-25 -2.65647e-23 0 2.65796e-23 -1.95121e-23 1.61343e-23 4.05059e-25
        </DataArray>
        <DataArray type="Float32" Name="velocity[2]" NumberOfComponents="1" format="ascii">
          4.03464e-11 3.81923e-09 -2.77962e-09 -2.31422e-09 -3.04447e-09 -3.14128e-09 -2.86853e-09 -2.60286e-09 -2.64942e-09 -3.20425e-09 -3.29574e-09 -3.13244e-09
          -2.62132e-09 -2.08264e-09 -1.4211e-09 -7.32056e-11 1.40423e-08 -2.20863e-09 -1.3937e-09 -1.79795e-09 -1.70766e-09 -9.72514e-10 -1.75022e-09 -2.19096e-09
          -3.43103e-09 -3.5855e-09 -4.66289e-09 -3.12333e-09 -1.68474e-09 -1.90383e-09 -1.1464e-09 2.30948e-08 -5.81102e-10 3.57486e-09 -3.85643e-09 -2.86348e-09
          -9.52521e-10 -1.57907e-09 -3.32519e-09 -4.70357e-09 -4.21152e-09 -8.13532e-09 -3.65768e-09 -2.199e-09 -2.54685e-09 -3.77825e-09 2.96024e-08 2.48661e-10
          1.7269e-08 -6.20474e-09 -6.41649e-09 -4.53185e-09 -3.22365e-09 -4.38252e-09 -5.6979e-09 -3.92862e-09 -1.1903e-08 -2.70211e-09 -2.48905e-09 -3.31731e-09
          -1.2588e-08 2.01474e-09 -8.43826e-10 -1.32927e-08 -1.20217e-08 -1.67593e-08 -1.61907e-08 -1.3921e-08 -5.8933e-09 -6.73237e-09 -5.65364e-09 -1.91219e-08
          -1.19019e-09 -1.65415e-09 -3.63243e-09 -2.84802e-08 -3.49271e-08 -2.14972e-09 -3.58004e-08 -8.68044e-09 -2.3833e-08 -1.63907e-08 -2.24365e-08 -4.31589e-09
          -3.78206e-09 -4.88047e-09 -2.56255e-08 -9.07378e-10 -1.32666e-09 -3.90072e-09 -2.96782e-08 -3.17279e-08 -1.5535e-09 -1.79197e-08 -7.9596e-09 -3.62068e-08
          -1.37761e-08 -3.32762e-08 -3.18623e-09 -2.26559e-09 -4.7297e-09 -2.95174e-08 -7.64803e-10 -1.12238e-09 -4.03751e-09 -2.70562e-08 -2.955e-08 -1.83752e-09
          -6.61994e-09 -4.82201e-09 -4.07769e-08 -8.5037e-09 -4.64532e-08 -2.22396e-09 -1.46449e-09 -4.26807e-09 -3.12661e-08 -9.50717e-10 -1.4615e-09 -4.51548e-09
          -2.43298e-08 -2.68736e-08 -1.86905e-09 -2.71324e-09 -3.80834e-09 -4.32089e-08 -4.02575e-09 -5.76113e-08 -1.2956e-09 -8.60928e-10 -5.08507e-09 -2.82981e-08
          -8.98043e-10 -1.32714e-09 -4.90498e-09 -2.03116e-08 -2.59915e-08 -3.58214e-09 -1.5017e-09 -2.54737e-09 -4.31824e-08 -2.60544e-09 -6.94651e-08 -7.95483e-10
          -5.4588e-10 -8.28374e-09 -2.28249e-08 -1.07424e-09 -1.23887e-09 -5.3019e-09 -1.4506e-08 -2.28274e-08 -4.94814e-09 -1.57252e-09 -2.2642e-09 -4.19242e-08
          -1.46071e-09 -8.01606e-08 -6.78421e-10 -5.03913e-10 -1.08014e-08 -1.76148e-08 -1.85442e-09 -1.27518e-09 -5.57652e-09 -1.18716e-08 -1.57342e-08 -8.17549e-09
          -1.48841e-09 -2.56006e-09 -4.17006e-08 -1.04563e-09 -8.72579e-08 -2.15924e-09 1.17924e-10 -1.06598e-08 -1.05752e-08 -4.45488e-09 -2.22025e-09 -5.74237e-09
          -1.04354e-08 -1.20387e-08 -7.96105e-09 -1.75471e-09 -3.18146e-09 -3.98776e-08 -2.2568e-09 -9.152e-08 -8.71793e-09 -5.74708e-10 -8.66086e-09 -5.30406e-09
          -6.96869e-09 -3.24085e-09 -5.65076e-09 -7.19641e-09 -1.40428e-08 -5.33663e-09 -1.92549e-09 -4.27436e-09 -3.65498e-08 -1.05953e-09 -8.71529e-08 -1.55644e-08
          -2.53145e-09 -4.40448e-09 -2.29857e-09 -7.41774e-09 -4.9645e-09 -4.94836e-09 -7.7788e-09 -1.30611e-08 -3.24437e-09 -1.46876e-09 -5.32869e-09 -3.62101e-08
          -6.88408e-10 -7.93304e-08 -1.88549e-08 -4.97568e-09 -3.37879e-09 -1.63644e-09 -6.47396e-09 -7.01352e-09 -4.15082e-09 -9.7919e-09 -1.0542e-08 -2.04472e-09
          -1.39663e-09 -6.31775e-09 -3.59223e-08 -9.22332e-10 -6.86409e-08 -2.14028e-08 -8.30927e-09 -4.28166e-09 -3.87284e-09 -8.81799e-09 -1.09366e-08 -3.2328e-09
          -1.07703e-08 -8.58132e-09 -1.40159e-09 -1.49741e-09 -8.24221e-09 -3.16031e-08 -2.11278e-09 -5.5267e-08 -2.1856e-08 -1.15762e-08 -3.05206e-09 -3.40814e-09
          -8.33316e-09 -1.68277e-08 -2.41358e-09 -1.066e-08 -6.94044e-09 -1.06527e-09 -1.52001e-09 -1.25105e-08 -2.34461e-08 -3.09379e-09 -4.35262e-08 -2.37482e-08
          -1.58779e-08 -2.76524e-09 -2.9501e-09 -5.61415e-09 -2.10026e-08 -1.93533e-09 -9.81015e-09 -5.61035e-09 -1.38852e-09 -1.32391e-09 -1.5873e-08 -1.57569e-08
          -3.22641e-09 -3.1715e-08 -2.42176e-08 -2.42191e-08 -2.84975e-09 -3.12852e-09 -6.56498e-09 -2.42284e-08 -2.13828e-09 -8.17918e-09 -3.87506e-09 -1.13976e-09
          -1.08984e-09 -1.70636e-08 -9.79235e-09 -3.06912e-09 -2.37433e-08 -1.79364e-08 -4.01543e-08 -2.8841e-09 -2.92478e-09 -8.04618e-09 -2.56902e-08 -2.68767e-09
          -6.4099e-09 -3.09002e-09 -1.32385e-09 -1.06532e-09 -1.64422e-08 -6.38317e-09 -3.00904e-09 -1.90771e-08 -8.90544e-09 -5.24196e-08 -3.17167e-09 -3.63231e-09
          -9.87288e-09 -2.71497e-08 -2.99569e-09 -4.23174e-09 -2.09667e-09 -1.47258e-09 -1.21346e-09 -1.29947e-08 -5.63401e-09 -3.35557e-09 -1.81751e-08 -5.6365e-09
          -5.49665e-08 -4.0356e-09 -5.51898e-09 -1.10624e-08 -2.90669e-08 -4.24665e-09 -2.07987e-09 -1.1281e-09 -1.03987e-09 -1.11788e-09 -7.525e-09 -5.16686e-09
          -3.62167e-09 -1.94402e-08 -5.45164e-09 -4.91838e-08 -6.68951e-09 -9.5392e-09 -1.53214e-08 -3.07935e-08 -5.36115e-09 -6.44943e-10 -4.79278e-10 -3.56122e-10
          -3.57379e-10 -2.08406e-09 -2.22351e-09 -1.81434e-09 -1.12414e-08 -5.63784e-09 -2.85947e-08 -1.22491e-08 -1.07333e-08 -1.22513e-08 -1.71188e-08 -2.87701e-09
        </DataArray>
        <DataArray type="Float32" Name="z[0]" NumberOfComponents="1" format="ascii">
          0.150578 0.150579 0.15058 0.150582 0.150582 0.150583 0.150584 0.150585 0.150585 0.150586 0.150587 0.150588
          0.150589 0.150591 0.150596 0.150581 0.150582 0.150583 0.150585 0.150586 0.150587 0.150587 0.150588 0.150588
          0.150589 0.15059 0.150591 0.150593 0.150595 0.150599 0.150584 0.150585 0.150587 0.150588 0.150589 0.15059
          0.15059 0.150591 0.150592 0.150593 0.150593 0.150595 0.150596 0.150598 0.150602 0.150588 0.150589 0.15059
          0.150591 0.150592 0.150593 0.150594 0.150594 0.150595 0.150596 0.150597 0.150598 0.150599 0.150601 0.150605
          0.150591 0.150592 0.150593 0.150594 0.151238 0.218891 0.230559 0.357815 0.150598 0.150599 0.1506 0.150601
          0.150602 0.150604 0.150609 0.150594 0.150595 0.150596 0.158796 0.391963 0.41376 0.399333 0.395371 0.150601
          0.150602 0.150603 0.150604 0.150605 0.150607 0.150612 0.150597 0.150598 0.1506 0.238969 0.413657 0.442163