<?xml version="1.0"?>
<VTKFile type="UnstructuredGrid" version="0.1" byte_order="LittleEndian">
  <UnstructuredGrid>
    <Piece NumberOfCells="360" NumberOfPoints="800">
      <CellData Scalars="pressure[0]">
        <DataArray type="Float32" Name="pressure[0]" NumberOfComponents="1" format="ascii">
          2.10106e+07 2.10252e+07 2.16242e+07 2.22473e+07 2.26207e+07 2.30477e+07 2.31809e+07 2.32305e+07 2.32903e+07 2.3357e+07 2.35472e+07 2.38616e+07
          2.40952e+07 2.4725e+07 2.54734e+07 2.10546e+07 2.10692e+07 2.17315e+07 2.23871e+07 2.27974e+07 2.32259e+07 2.33236e+07 2.33623e+07 2.3424e+07
          2.34996e+07 2.37638e+07 2.40816e+07 2.42709e+07 2.49174e+07 2.56399e+07 2.10991e+07 2.11138e+07 2.1806e+07 2.25328e+07 2.28966e+07 2.32977e+07
          2.3415e+07 2.3472e+07 2.35525e+07 2.36573e+07 2.40139e+07 2.43743e+07 2.4562e+07 2.51607e+07 2.58511e+07 2.11958e+07 2.12427e+07 2.16806e+07
          2.26675e+07 2.30229e+07 2.3408e+07 2.35138e+07 2.35661e+07 2.36912e+07 2.38563e+07 2.4332e+07 2.47429e+07 2.49294e+07 2.5451e+07 2.61145e+07
          2.13291e+07 2.13535e+07 1.97986e+07 2.27691e+07 2.32109e+07 2.36168e+07 2.36868e+07 2.37234e+07 2.39256e+07 2.42361e+07 2.47124e+07 2.50954e+07
          2.52891e+07 2.57803e+07 2.63738e+07 2.15296e+07 2.15727e+07 2.21747e+07 2.32885e+07 2.3611e+07 2.38823e+07 2.39223e+07 2.39522e+07 2.4225e+07
          2.46784e+07 2.51628e+07 2.54151e+07 2.56239e+07 2.6111e+07 2.66651e+07 2.17865e+07 2.18369e+07 2.28666e+07 2.37866e+07 2.40005e+07 2.41883e+07
          2.42222e+07 2.42791e+07 2.45216e+07 2.51093e+07 2.55849e+07 2.56984e+07 2.58971e+07 2.64697e+07 2.70719e+07 2.21552e+07 2.22097e+07 2.33235e+07
          2.41545e+07 2.43501e+07 2.44864e+07 2.45455e+07 2.46234e+07 2.48959e+07 2.54778e+07 2.58674e+07 2.59566e+07 2.62221e+07 2.68425e+07 2.76356e+07
          2.26917e+07 2.2754e+07 2.36747e+07 2.44425e+07 2.46582e+07 2.47508e+07 2.49402e+07 2.51427e+07 2.54377e+07 2.59278e+07 2.61688e+07 2.62092e+07
          2.6479e+07 2.72681e+07 2.81998e+07 2.33438e+07 2.3445e+07 2.39868e+07 2.4567e+07 2.49225e+07 2.49858e+07 2.54153e+07 2.58617e+07 2.60752e+07
          2.63873e+07 2.65397e+07 2.65746e+07 2.68588e+07 2.76983e+07 2.85349e+07 2.42216e+07 2.4351e+07 2.45955e+07 2.49647e+07 2.52577e+07 2.53464e+07
          2.59045e+07 2.65065e+07 2.66707e+07 2.68274e+07 2.69227e+07 2.69684e+07 2.72044e+07 2.80537e+07 2.87816e+07 2.49387e+07 2.50128e+07 2.51343e+07
          2.54016e+07 2.56292e+07 2.56971e+07 2.63978e+07 2.71343e+07 2.71911e+07 2.72691e+07 2.73216e+07 2.73694e+07 2.75752e+07 2.84118e+07 2.90546e+07
          2.54709e+07 2.55229e+07 2.5575e+07 2.58441e+07 2.60628e+07 2.62911e+07 2.70737e+07 2.77834e+07 2.78683e+07 2.77798e+07 2.78006e+07 2.78622e+07
          2.85095e+07 2.96176e+07 2.98677e+07 2.58843e+07 2.59396e+07 2.6032e+07 2.63862e+07 2.71957e+07 2.73186e+07 2.79367e+07 2.84319e+07 2.84905e+07
          2.84726e+07 2.83264e+07 2.89479e+07 2.99307e+07 3.06036e+07 3.03213e+07 2.62374e+07 2.62776e+07 2.66324e+07 2.71618e+07 2.81804e+07 2.82717e+07
          2.86677e+07 2.8975e+07 2.90262e+07 2.90979e+07 2.92254e+07 3.0136e+07 3.0871e+07 3.10611e+07 3.08683e+07 2.71048e+07 2.71352e+07 2.74202e+07
          2.83733e+07 2.87856e+07 2.88537e+07 2.91365e+07 2.93242e+07 2.93757e+07 2.94555e+07 2.97783e+07 3.06215e+07 3.1251e+07 3.15912e+07 3.13835e+07
          2.79569e+07 2.79939e+07 2.81231e+07 2.90825e+07 2.92674e+07 2.9307e+07 2.94441e+07 2.95669e+07 2.96165e+07 2.96826e+07 3.01273e+07 3.11245e+07
          3.17931e+07 3.2122e+07 3.18543e+07 2.86418e+07 2.87001e+07 2.90891e+07 2.9427e+07 2.95738e+07 2.96186e+07 2.97224e+07 2.98111e+07 2.9863e+07
          2.99228e+07 3.04722e+07 3.15245e+07 3.22059e+07 3.24728e+07 3.2324e+07 2.89791e+07 2.90469e+07 2.92873e+07 2.96501e+07 2.98361e+07 2.98845e+07
          2.99731e+07 3.00492e+07 3.00964e+07 3.01537e+07 3.07577e+07 3.192e+07 3.26172e+07 3.28134e+07 3.29804e+07 2.92449e+07 2.93044e+07 2.95226e+07
          2.98814e+07 3.00626e+07 3.01114e+07 3.01963e+07 3.02672e+07 3.03149e+07 3.03794e+07 3.09769e+07 3.2257e+07 3.30229e+07 3.31738e+07 3.36046e+07
          2.94641e+07 2.95329e+07 2.97051e+07 3.00355e+07 3.02619e+07 3.03163e+07 3.04072e+07 3.04818e+07 3.05478e+07 3.06314e+07 3.1478e+07 3.2846e+07
          3.33981e+07 3.3558e+07 3.40892e+07 2.96731e+07 2.97448e+07 2.98972e+07 3.02196e+07 3.04502e+07 3.05107e+07 3.06164e+07 3.0702e+07 3.07896e+07
          3.08872e+07 3.20308e+07 3.34504e+07 3.37873e+07 3.39851e+07 3.45613e+07 2.98612e+07 2.9926e+07 3.01116e+07 3.04515e+07 3.06384e+07 3.07091e+07
          3.08342e+07 3.09339e+07 3.10488e+07 3.11723e+07 3.24964e+07 3.39459e+07 3.42327e+07 3.4456e+07 3.48963e+07 3.0031e+07 3.00922e+07 3.02537e+07
          3.05944e+07 3.08357e+07 3.09083e+07 3.10498e+07 3.11665e+07 3.1308e+07 3.14766e+07 3.30127e+07 3.43749e+07 3.46937e+07 3.48941e+07 3.5191e+07
        </DataArray>
        <DataArray type="Float32" Name="pressure[1]" NumberOfComponents="1" format="ascii">
          2.10106e+07 2.10252e+07 2.16242e+07 2.22473e+07 2.26207e+07 2.30477e+07 2.31809e+07 2.32305e+07 2.32903e+07 2.3357e+07 2.35472e+07 2.38616e+07
          2.40952e+07 2.4725e+07 2.54734e+07 2.10546e+07 2.10692e+07 2.17315e+07 2.23871e+07 2.27974e+07 2.32259e+07 2.33236e+07 2.33623e+07 2.3424e+07
          2.34996e+07 2.37638e+07 2.40816e+07 2.42709e+07 2.49174e+07 2.56399e+07 2.10991e+07 2.11138e+07 2.1806e+07 2.25328e+07 2.28966e+07 2.32977e+07
          2.3415e+07 2.3472e+07 2.35525e+07 2.36573e+07 2.40139e+07 2.43743e+07 2.4562e+07 2.51607e+07 2.58511e+07 2.11958e+07 2.12427e+07 2.16806e+07
          2.26675e+07 2.30229e+07 2.3408e+07 2.35138e+07 2.35661e+07 2.36912e+07 2.38563e+07 2.4332e+07 2.47429e+07 2.49294e+07 2.5451e+07 2.61145e+07
          2.13291e+07 2.13535e+07 1.97986e+07 2.27691e+07 2.32109e+07 2.36168e+07 2.36868e+07 2.37234e+07 2.39256e+07 2.42361e+07 2.47124e+07 2.50954e+07
          2.52891e+07 2.57803e+07 2.63738e+07 2.15296e+07 2.15727e+07 2.21747e+07 2.32885e+07 2.3611e+07 2.38823e+07 2.39223e+07 2.39522e+07 2.4225e+07
          2.46784e+07 2.51628e+07 2.54151e+07 2.56239e+07 2.6111e+07 2.66651e+07 2.17865e+07 2.18369e+07 2.28666e+07 2.37866e+07 2.40005e+07 2.41883e+07
          2.42222e+07 2.42791e+07 2.45216e+07 2.51093e+07 2.55849e+07 2.56984e+07 2.58971e+07 2.64697e+07 2.70719e+07 2.21552e+07 2.22097e+07 2.33235e+07
          2.41545e+07 2.43501e+07 2.44864e+07 2.45455e+07 2.46234e+07 2.48959e+07 2.54778e+07 2.58674e+07 2.59566e+07 2.62221e+07 2.68425e+07 2.76356e+07
          2.26917e+07 2.2754e+07 2.36747e+07 2.44425e+07 2.46582e+07 2.47508e+07 2.49402e+07 2.51427e+07 2.54377e+07 2.59278e+07 2.61688e+07 2.62092e+07
          2.6479e+07 2.72681e+07 2.81998e+07 2.33438e+07 2.3445e+07 2.39868e+07 2.4567e+07 2.49225e+07 2.49858e+07 2.54153e+07 2.58617e+07 2.60752e+07
          2.63873e+07 2.65397e+07 2.65746e+07 2.68588e+07 2.76983e+07 2.85349e+07 2.42216e+07 2.4351e+07 2.45955e+07 2.49647e+07 2.52577e+07 2.53464e+07
          2.59045e+07 2.65065e+07 2.66707e+07 2.68274e+07 2.69227e+07 2.69684e+07 2.72044e+07 2.80537e+07 2.87816e+07 2.49387e+07 2.50128e+07 2.51343e+07
          2.54016e+07 2.56292e+07 2.56971e+07 2.63978e+07 2.71343e+07 2.71911e+07 2.72691e+07 2.73216e+07 2.73694e+07 2.75752e+07 2.84118e+07 2.90546e+07
          2.54709e+07 2.55229e+07 2.5575e+07 2.58441e+07 2.60628e+07 2.62911e+07 2.70737e+07 2.77834e+07 2.78683e+07 2.77798e+07 2.78006e+07 2.78622e+07
          2.85095e+07 2.96176e+07 2.98677e+07 2.58843e+07 2.59396e+07 2.6032e+07 2.63862e+07 2.71957e+07 2.73186e+07 2.79367e+07 2.84319e+07 2.84905e+07
          2.84726e+07 2.83264e+07 2.89479e+07 2.99307e+07 3.06036e+07 3.03213e+07 2.62374e+07 2.62776e+07 2.66324e+07 2.71618e+07 2.81804e+07 2.82717e+07
          2.86677e+07 2.8975e+07 2.90262e+07 2.90979e+07 2.92254e+07 3.0136e+07 3.0871e+07 3.10611e+07 3.08683e+07 2.71048e+07 2.71352e+07 2.74202e+07
          2.83733e+07 2.87856e+07 2.88537e+07 2.91365e+07 2.93242e+07 2.93757e+07 2.94555e+07 2.97783e+07 3.06215e+07 3.1251e+07 3.15912e+07 3.13835e+07
          2.79569e+07 2.79939e+07 2.81231e+07 2.90825e+07 2.92674e+07 2.9307e+07 2.94441e+07 2.95669e+07 2.96165e+07 2.96826e+07 3.01273e+07 3.11245e+07
          3.17931e+07 3.2122e+07 3.18543e+07 2.86418e+07 2.87001e+07 2.90891e+07 2.9427e+07 2.95738e+07 2.96186e+07 2.97224e+07 2.98111e+07 2.9863e+07
          2.99228e+07 3.04722e+07 3.15245e+07 3.22059e+07 3.24728e+07 3.2324e+07 2.89791e+07 2.90469e+07 2.92873e+07 2.96501e+07 2.98361e+07 2.98845e+07
          2.99731e+07 3.00492e+07 3.00964e+07 3.01537e+07 3.07577e+07 3.192e+07 3.26172e+07 3.28134e+07 3.29804e+07 2.92449e+07 2.93044e+07 2.95226e+07
          2.98814e+07 3.00626e+07 3.01114e+07 3.01963e+07 3.02672e+07 3.03149e+07 3.03794e+07 3.09769e+07 3.2257e+07 3.30229e+07 3.31738e+07 3.36046e+07
          2.94641e+07 2.95329e+07 2.97051e+07 3.00355e+07 3.02619e+07 3.03163e+07 3.04072e+07 3.04818e+07 3.05478e+07 3.06314e+07 3.1478e+07 3.2846e+07
          3.33981e+07 3.3558e+07 3.40892e+07 2.96731e+07 2.97448e+07 2.98972e+07 3.02196e+07 3.04502e+07 3.05107e+07 3.06164e+07 3.0702e+07 3.07896e+07
          3.08872e+07 3.20308e+07 3.34504e+07 3.37873e+07 3.39851e+07 3.45613e+07 2.98612e+07 2.9926e+07 3.01116e+07 3.04515e+07 3.06384e+07 3.07091e+07
          3.08342e+07 3.09339e+07 3.10488e+07 3.11723e+07 3.24964e+07 3.39459e+07 3.42327e+07 3.4456e+07 3.48963e+07 3.0031e+07 3.00922e+07 3.02537e+07
          3.05944e+07 3.08357e+07 3.09083e+07 3.10498e+07 3.11665e+07 3.1308e+07 3.14766e+07 3.30127e+07 3.43749e+07 3.46937e+07 3.48941e+07 3.5191e+07
        </DataArray>
        <DataArray type="Float32" Name="pressure[2]" NumberOfComponents="1" format="ascii">
          2.10106e+07 2.10252e+07 2.16242e+07 2.22473e+07 2.26207e+07 2.30477e+07 2.31809e+07 2.32305e+07 2.32903e+07 2.3357e+07 2.35472e+07 2.38616e+07
          2.40952e+07 2.4725e+07 2.54734e+07 2.10546e+07 2.10692e+07 2.17315e+07 2.23871e+07 2.27974e+07 2.32259e+07 2.33236e+07 2.33623e+07 2.3424e+07
          2.34996e+07 2.37638e+07 2.40816e+07 2.42709e+07 2.49174e+07 2.56399e+07 2.10991e+07 2.11138e+07 2.1806e+07 2.25328e+07 2.28966e+07 2.32977e+07
          2.3415e+07 2.3472e+07 2.35525e+07 2.36573e+07 2.40139e+07 2.43743e+07 2.4562e+07 2.51607e+07 2.58511e+07 2.11958e+07 2.12427e+07 2.16806e+07
          2.26675e+07 2.30229e+07 2.3408e+07 2.35138e+07 2.35661e+07 2.36912e+07 2.38563e+07 2.4332e+07 2.47429e+07 2.49294e+07 2.5451e+07 2.61145e+07
          2.13291e+07 2.13535e+07 1.97986e+07 2.27691e+07 2.32109e+07 2.36168e+07 2.36868e+07 2.37234e+07 2.39256e+07 2.42361e+07 2.47124e+07 2.50954e+07
          2.52891e+07 2.57803e+07 2.63738e+07 2.15296e+07 2.15727e+07 2.21747e+07 2.32885e+07 2.3611e+07 2.38823e+07 2.39223e+07 2.39522e+07 2.4225e+07
          2.46784e+07 2.51628e+07 2.54151e+07 2.56239e+07 2.6111e+07 2.66651e+07 2.17865e+07 2.18369e+07 2.28666e+07 2.37866e+07 2.40005e+07 2.41883e+07
          2.42222e+07 2.42791e+07 2.45216e+07 2.51093e+07 2.55849e+07 2.56984e+07 2.58971e+07 2.64697e+07 2.70719e+07 2.21552e+07 2.22097e+07 2.33235e+07
          2.41545e+07 2.43501e+07 2.44864e+07 2.45455e+07 2.46234e+07 2.48959e+07 2.54778e+07 2.58674e+07 2.59566e+07 2.62221e+07 2.68425e+07 2.76356e+07
          2.26917e+07 2.2754e+07 2.36747e+07 2.44425e+07 2.46582e+07 2.47508e+07 2.49402e+07 2.51427e+07 2.54377e+07 2.59278e+07 2.61688e+07 2.62092e+07
          2.6479e+07 2.72681e+07 2.81998e+07 2.33438e+07 2.3445e+07 2.39868e+07 2.4567e+07 2.49225e+07 2.49858e+07 2.54153e+07 2.58617e+07 2.60752e+07
          2.63873e+07 2.65397e+07 2.65746e+07 2.68588e+07 2.76983e+07 2.85349e+07 2.42216e+07 2.4351e+07 2.45955e+07 2.49647e+07 2.52577e+07 2.53464e+07
          2.59045e+07 2.65065e+07 2.66707e+07 2.68274e+07 2.69227e+07 2.69684e+07 2.72044e+07 2.80537e+07 2.87816e+07 2.49387e+07 2.50128e+07 2.51343e+07
          2.54016e+07 2.56292e+07 2.56971e+07 2.63978e+07 2.71343e+07 2.71911e+07 2.72691e+07 2.73216e+07 2.73694e+07 2.75752e+07 2.84118e+07 2.90546e+07
          2.54709e+07 2.55229e+07 2.5575e+07 2.58441e+07 2.60628e+07 2.62911e+07 2.70737e+07 2.77834e+07 2.78683e+07 2.77798e+07 2.78006e+07 2.78622e+07
          2.85095e+07 2.96176e+07 2.98677e+07 2.58843e+07 2.59396e+07 2.6032e+07 2.63862e+07 2.71957e+07 2.73186e+07 2.79367e+07 2.84319e+07 2.84905e+07
          2.84726e+07 2.83264e+07 2.89479e+07 2.99307e+07 3.06036e+07 3.03213e+07 2.62374e+07 2.62776e+07 2.66324e+07 2.71618e+07 2.81804e+07 2.82717e+07
          2.86677e+07 2.8975e+07 2.90262e+07 2.90979e+07 2.92254e+07 3.0136e+07 3.0871e+07 3.10611e+07 3.08683e+07 2.71048e+07 2.71352e+07 2.74202e+07
          2.83733e+07 2.87856e+07 2.88537e+07 2.91365e+07 2.93242e+07 2.93757e+07 2.94555e+07 2.97783e+07 3.06215e+07 3.1251e+07 3.15912e+07 3.13835e+07
          2.79569e+07 2.79939e+07 2.81231e+07 2.90825e+07 2.92674e+07 2.9307e+07 2.94441e+07 2.95669e+07 2.96165e+07 2.96826e+07 3.01273e+07 3.11245e+07
          3.17931e+07 3.2122e+07 3.18543e+07 2.86418e+07 2.87001e+07 2.90891e+07 2.9427e+07 2.95738e+07 2.96186e+07 2.97224e+07 2.98111e+07 2.9863e+07
          2.99228e+07 3.04722e+07 3.15245e+07 3.22059e+07 3.24728e+07 3.2324e+07 2.89791e+07 2.90469e+07 2.92873e+07 2.96501e+07 2.98361e+07 2.98845e+07
          2.99731e+07 3.00492e+07 3.00964e+07 3.01537e+07 3.07577e+07 3.192e+07 3.26172e+07 3.28134e+07 3.29804e+07 2.92449e+07 2.93044e+07 2.95226e+07
          2.98814e+07 3.00626e+07 3.01114e+07 3.01963e+07 3.02672e+07 3.03149e+07 3.03794e+07 3.09769e+07 3.2257e+07 3.30229e+07 3.31738e+07 3.36046e+07
          2.94641e+07 2.95329e+07 2.97051e+07 3.00355e+07 3.02619e+07 3.03163e+07 3.04072e+07 3.04818e+07 3.05478e+07 3.06314e+07 3.1478e+07 3.2846e+07
          3.33981e+07 3.3558e+07 3.40892e+07 2.96731e+07 2.97448e+07 2.98972e+07 3.02196e+07 3.04502e+07 3.05107e+07 3.06164e+07 3.0702e+07 3.07896e+07
          3.08872e+07 3.20308e+07 3.34504e+07 3.37873e+07 3.39851e+07 3.45613e+07 2.98612e+07 2.9926e+07 3.01116e+07 3.04515e+07 3.06384e+07 3.07091e+07
          3.08342e+07 3.09339e+07 3.10488e+07 3.11723e+07 3.24964e+07 3.39459e+07 3.42327e+07 3.4456e+07 3.48963e+07 3.0031e+07 3.00922e+07 3.02537e+07
          3.05944e+07 3.08357e+07 3.09083e+07 3.10498e+07 3.11665e+07 3.1308e+07 3.14766e+07 3.30127e+07 3.43749e+07 3.46937e+07 3.48941e+07 3.5191e+07
        </DataArray>
        <DataArray type="Float32" Name="velocity[0]" NumberOfComponents="1" format="ascii">
          -6.21302e-11 3.48959e-08 2.04843e-10 -2.64263e-09 -3.42964e-10 -1.34314e-09 -2.56897e-10 1.36746e-09 2.19272e-09 -2.22781e-10 -1.85162e-09 -2.56763e-09
          -1.71411e-09 -5.62348e-10 -2.65863e-09 -2.61912e-09 1.0208e-07 5.05191e-10 -1.42186e-08 1.99579e-11 1.81506e-09 8.52807e-09 5.85469e-09 4.93458e-09
          -2.02877e-09 -3.86174e-09 -1.09739e-08 -6.7261e-09 -1.74576e-09 -7.05851e-09 -1.25412e-08 1.5436e-07 1.16451e-09 6.68079e-09 5.98664e-10 5.26855e-09
          1.54283e-08 1.10288e-08 2.99573e-09 -5.51393e-09 -4.59271e-09 -2.74781e-08 -9.66549e-09 -3.75984e-09 -1.0597e-08 -1.6346e-08 1.75409e-07 6.90062e-09
          8.42217e-08 -1.1793e-09 -6.30289e-09 -1.19132e-09 2.94049e-09 -3.45989e-09 -1.26347e-08 -5.87536e-09 -4.71589e-08 -6.85822e-09 -5.51536e-09 -1.44912e-08
          -8.98054e-08 -3.21769e-08 -2.66156e-10 -1.18317e-07 -1.39726e-08 -5.01832e-08 -5.23428e-08 -3.75909e-08 -6.57204e-09 -1.31362e-08 -8.2828e-09 -8.01592e-08
          -3.46375e-09 -5.05915e-09 -1.78976e-08 -1.75709e-07 -2.18749e-07 -7.69068e-09 -2.57109e-07 -3.25957e-08 -1.72626e-07 -1.00169e-07 -7.30203e-08 -4.92759e-09
          -5.94835e-09 -1.27081e-08 -1.17224e-07 -2.03767e-09 -4.03002e-09 -2.02032e-08 -1.76567e-07 -1.90027e-07 -2.37917e-09 -8.66682e-08 -3.33065e-08 -3.29709e-07
          -7.64012e-08 -9.76805e-08 -4.64338e-09 -2.79675e-09 -1.58359e-08 -1.43451e-07 -1.79874e-09 -3.98806e-09 -2.18118e-08 -1.60699e-07 -1.74375e-07 -2.03655e-09
          -1.66294e-08 -2.13517e-08 -3.91301e-07 -2.68912e-08 -1.66108e-07 -5.45104e-09 -2.49651e-09 -1.82459e-08 -1.62806e-07 -1.51392e-09 -4.12855e-09 -2.36318e-08
          -1.45083e-07 -1.57173e-07 -2.36326e-09 -2.65414e-09 -1.4091e-08 -3.67569e-07 -8.65287e-09 -2.65192e-07 -5.42706e-09 -3.0341e-09 -3.13464e-08 -1.59548e-07
          -1.45825e-09 -3.74154e-09 -2.60325e-08 -1.18474e-07 -1.43792e-07 -9.64565e-09 -1.04384e-09 -1.65573e-08 -3.23073e-07 -3.56937e-09 -3.66586e-07 -5.58073e-09
          -3.51834e-09 -5.38153e-08 -1.36512e-07 -2.31517e-09 -3.1304e-09 -2.84392e-08 -8.77068e-08 -1.36211e-07 -2.03801e-08 -1.90562e-09 -2.67284e-08 -2.80623e-07
          -1.65074e-09 -4.34832e-07 -1.1057e-08 -4.99901e-09 -6.93289e-08 -1.10836e-07 -5.36845e-09 -3.47178e-09 -3.06418e-08 -6.94111e-08 -1.30304e-07 -2.6512e-08
          -1.45537e-09 -3.69069e-08 -2.55673e-07 -1.3598e-09 -4.54635e-07 -2.0869e-08 -1.01326e-08 -7.54887e-08 -7.90895e-08 -1.18845e-08 -6.40313e-09 -3.30744e-08
          -6.13176e-08 -1.29651e-07 -2.37588e-08 -2.62893e-09 -3.29494e-08 -2.36998e-07 -1.8854e-09 -4.71141e-07 -4.44888e-08 -1.1486e-08 -7.24648e-08 -3.53338e-08
          -2.6421e-08 -1.39098e-08 -3.45802e-08 -5.59033e-08 -1.33705e-07 -1.5315e-08 -6.50617e-09 -2.49734e-08 -2.24549e-07 -1.96197e-09 -4.7954e-07 -8.14627e-08
          -1.64256e-08 -4.54901e-08 -8.06761e-09 -3.53625e-08 -2.73803e-08 -3.32546e-08 -5.63212e-08 -1.13916e-07 -1.21984e-08 -8.5206e-09 -3.0129e-08 -2.26325e-07
          -1.44609e-09 -4.60268e-07 -1.03751e-07 -2.69315e-08 -2.00226e-08 -4.67306e-09 -3.3207e-08 -4.34881e-08 -2.96952e-08 -6.32166e-08 -7.74956e-08 -1.25796e-08
          -6.7894e-09 -3.83418e-08 -2.32022e-07 -1.83245e-09 -3.9901e-07 -1.09801e-07 -3.38538e-08 -1.05096e-08 -5.72249e-09 -3.75567e-08 -6.46872e-08 -2.49139e-08
          -6.73377e-08 -5.49091e-08 -9.38755e-09 -6.53852e-09 -5.47614e-08 -2.06711e-07 -3.44073e-09 -3.18431e-07 -1.115e-07 -5.17318e-08 -3.93135e-09 -5.40043e-09
          -3.11108e-08 -9.65964e-08 -1.97634e-08 -6.76061e-08 -4.27555e-08 -3.51685e-09 -4.4888e-09 -8.092e-08 -1.48986e-07 -5.15872e-09 -2.45437e-07 -1.21792e-07
          -7.98416e-08 -2.72769e-09 -3.61733e-09 -2.02558e-08 -1.26638e-07 -1.5429e-08 -6.14205e-08 -3.04584e-08 -1.75776e-09 -1.56262e-09 -9.92716e-08 -9.41578e-08
          -5.41811e-09 -1.77281e-07 -1.22975e-07 -1.27205e-07 -1.57546e-09 -2.97982e-09 -2.65822e-08 -1.45055e-07 -1.35203e-08 -5.11326e-08 -2.05263e-08 -1.66331e-09
          -6.94563e-10 -1.04915e-07 -5.31914e-08 -4.50797e-09 -1.30288e-07 -8.00656e-08 -2.22583e-07 -2.79392e-09 -4.26491e-09 -3.95228e-08 -1.54112e-07 -1.45749e-08
          -3.91183e-08 -1.38096e-08 -1.48382e-09 -1.69381e-10 -9.70653e-08 -2.76605e-08 -3.85686e-09 -1.02789e-07 -3.36746e-08 -3.10081e-07 -4.40405e-09 -7.87567e-09
          -4.80213e-08 -1.61314e-07 -1.67745e-08 -2.46076e-08 -7.04158e-09 -2.33827e-09 -8.94765e-10 -7.15757e-08 -1.87679e-08 -3.78093e-09 -9.77087e-08 -1.83454e-08
          -3.28387e-07 -4.0123e-09 -1.50942e-08 -5.25998e-08 -1.68632e-07 -2.08452e-08 -1.14875e-08 -2.81544e-09 -1.05305e-09 -5.90584e-10 -3.57182e-08 -1.40211e-08
          -3.11385e-09 -1.03686e-07 -1.48287e-08 -2.83205e-07 -5.56485e-09 -2.60076e-08 -6.92307e-08 -1.75949e-07 -2.72532e-08 -3.04409e-09 -6.3461e-10 2.33365e-10
          8.86512e-11 -8.44032e-09 -5.35485e-09 -1.14215e-09 -5.29579e-08 -6.91442e-09 -1.22493e-07 -3.67268e-09 -1.57795e-08 -4.14086e-08 -9.04969e-08 -1.53103e-08
        </DataArray>
        <DataArray type="Float32" Name="velocity[1]" NumberOfComponents="1" format="ascii">
          9.65577e-27 5.5556e-24 9.16507e-26 -4.10696e-25 5.33007e-26 0 3.99249e-26 -1.74254e-25 5.3494e-26 5.57328e-24 -3.622e-24 4.28871e-26
          2.3902e-24 -9.52401e-25 4.13013e-25 3.87731e-25 4.90375e-24 8.3715e-26 -1.38835e-24 -1.8671e-25 7.24627e-24 1.20769e-24 3.32683e-25 -6.85031e-24
          -1.47223e-25 0 -4.2275e-26 4.71749e-26 2.13044e-28 2.70611e-25 1.15428e-24 -7.46223e-24 -1.71868e-24 4.63637e-24 -1.83845e-25 0
          2.62354e-25 -3.64001e-25 -3.86664e-25 0 6.87894e-24 -1.07011e-23 0 1.11799e-24 -2.79686e-25 -1.09403e-24 1.26444e-23 -1.53978e-24
          -8.08798e-24 3.8748e-25 9.77523e-24 -2.09746e-23 2.48009e-23 -3.85864e-24 1.10799e-24 3.38424e-24 -4.51953e-24 3.12545e-24 -1.30434e-24 9.77875e-25
          -9.82422e-26 -6.48516e-23 6.01981e-24 1.09504e-23 -4.02931e-25 -5.41818e-24 1.07006e-25 -9.53115e-26 -1.87607e-26 -6.35795e-24 4.08313e-24 -7.4558e-24
          -2.03735e-28 1.27062e-25 -1.49251e-24 -1.3288e-25 6.86069e-24 -6.53831e-25 7.81358e-24 1.75769e-25 -1.42384e-23 0 -9.56309e-26 -1.74262e-26
          3.429e-25 -4.25306e-25 5.37147e-24 -1.46183e-24 8.64971e-25 1.49208e-24 -1.07595e-24 1.26194e-24 0 9.4125e-24 -9.49238e-25 -2.83186e-23
          -7.90969e-26 -8.27841e-26 -3.25077e-24 4.21939e-28 -2.50394e-28 -5.5971e-28 3.76999e-26 -1.29427e-28 -1.6473e-24 -1.78143e-25 1.28493e-23 1.40048e-24
          3.37518e-24 -5.14294e-26 3.20999e-23 2.15919e-26 -3.44346e-26 -9.42881e-26 -5.94656e-26 -3.69324e-24 -1.21919e-23 -1.9361e-28 -3.71705e-25 1.93017e-24
          -1.3852e-24 -9.21141e-24 -8.81448e-26 -1.77871e-24 -2.92659e-25 5.8398e-24 0 0 -8.25326e-25 1.3988e-28 1.08802e-24 2.94231e-24
          -3.96608e-28 5.55368e-26 -1.2807e-28 -1.06745e-23 1.09365e-24 1.27752e-24 -1.74743e-25 -1.15124e-24 5.53801e-24 -9.91401e-24 7.9471e-24 7.99499e-25
          -5.09883e-26 -7.25237e-25 3.11626e-24 -8.4583e-25 0 -2.11559e-24 4.31333e-24 1.21519e-25 5.78813e-25 -1.8298e-25 2.39118e-24 1.00555e-27
          -5.58782e-24 5.32988e-24 7.7643e-25 1.79303e-25 3.50166e-25 7.98225e-24 1.82953e-24 -3.07585e-25 1.53793e-25 -4.89431e-24 1.09506e-24 -3.76907e-25
          5.66471e-29 -4.4713e-25 -1.91144e-23 3.01351e-26 4.19101e-25 -1.37928e-24 -6.18719e-25 -1.92763e-25 2.92317e-24 -2.0332e-24 1.12855e-24 -2.2466e-25
          4.63392e-24 9.85546e-24 0 -1.82427e-25 -1.32225e-24 1.40558e-24 5.10385e-26 2.15335e-24 -2.9223e-24 -2.97718e-28 -5.23814e-24 -8.71745e-25
          1.66076e-24 -6.79087e-25 9.8171e-29 -5.82325e-25 8.33999e-28 8.49759e-25 -8.39739e-25 -7.42681e-30 1.66838e-23 -3.96236e-26 -8.41997e-25 3.70349e-24
          1.82311e-24 5.23863e-24 2.57647e-24 -4.76169e-24 -3.28971e-29 -2.4765e-24 -4.05222e-24 -7.22001e-24 -5.07048e-28 7.15638e-25 7.18708e-25 1.27363e-27
          -4.05248e-26 -6.08697e-24 1.75024e-24 0 0 3.82057e-25 3.89379e-24 -5.38201e-25 4.61491e-24 0 2.39846e-24 0
          -4.46589e-25 5.57869e-25 9.45972e-28 1.0057e-25 -7.36929e-24 -3.86094e-28 -3.63045e-28 -4.64279e-28 4.35597e-24 -6.49734e-28 -1.27167e-24 -2.13878e-24
          6.34481e-28 1.11122e-24 -4.04383e-28 -1.23169e-25 1.99407e-24 -1.05982e-23 0 -1.10594e-23 0 5.24111e-28 3.17095e-24 -3.91582e-24
          -1.74193e-24 3.93238e-28 1.3383e-24 0 3.71089e-24 0 5.69954e-25 1.98248e-24 5.06522e-24 1.17619e-25 -6.19012e-24 -5.44884e-24
          -2.20911e-24 1.85066e-25 5.17096e-26 -1.53076e-28 -1.79031e-24 -1.05955e-24 4.37927e-24 -2.18508e-24 2.41085e-24 -1.99568e-24 7.80707e-25 9.09551e-24
          -7.72713e-26 -4.40195e-24 1.02809e-23 5.6257e-24 -3.38695e-24 7.32739e-26 9.28624e-25 -5.65603e-28 1.04167e-24 -1.35724e-28 -3.96431e-24 8.59425e-25
          -1.82005e-24 1.92649e-25 -2.80867e-24 -1.28366e-25 -5.8036e-24 -5.21837e-24 9.67358e-24 2.7624e-25 3.6138e-24 1.08214e-24 -3.64283e-25 -8.59899e-25
          -1.05524e-24 6.3534e-25 0 -4.06691e-26 -1.31628e-24 4.62839e-24 -8.13664e-24 8.13653e-24 -5.84707e-24 1.58501e-27 0 0
          2.38681e-25 -7.90992e-28 1.38352e-24 -1.19989e-24 -1.2607e-24 1.16319e-24 -1.95289e-24 -8.8183e-25 -1.34684e-24 2.51711e-26 5.82723e-25 -3.82189e-24
          1.37187e-23 -2.59562e-25 -6.55908e-24 4.7245e-25 9.46228e-25 -2.17787e-28 -8.39149e-25 6.92909e-29 4.78304e-29 1.19307e-25 -2.92756e-24 5.14604e-25
          -1.28923e-25 1.04232e-23 -4.32331e-24 0 -2.76714e-25 -8.62284e-25 6.69078e-24 -7.8488e-25 0 -4.73067e-25 2.6818e-29 -3.84473e-25
          6.52678e-25 -1.31167e-24 -2.19854e-24 -3.55095e-25 -2.74872e-24 1.07458e-24 -2.97823e-23 0 2.97362e-23 -2.17478e-23 1.79227e-23 4.51234e-25
        </DataArray>
        <DataArray type="Float32" Name="velocity[2]" NumberOfComponents="1" format="ascii">
          1.48755e-12 4.47599e-09 -3.31006e-09 -3.61331e-09 -2.99264e-09 -3.03383e-09 -2.7382e-09 -2.46309e-09 -2.45838e-09 -2.96901e-09 -3.08847e-09 -2.90256e-09
          -2.44268e-09 -1.98657e-09 -1.35538e-09 -2.87616e-10 1.6771e-08 -2.67939e-09 -4.75956e-09 -1.78233e-09 -1.66642e-09 -9.01927e-10 -1.67982e-09 -1.93133e-09
          -3.08952e-09 -3.29698e-09 -4.15098e-09 -2.79522e-09 -1.57319e-09 -1.82546e-09 -1.70367e-09 2.72473e-08 -7.70812e-10 -1.2702e-09 -3.75534e-09 -2.81806e-09
          -8.85254e-10 -1.63892e-09 -2.93154e-09 -4.16167e-09 -3.83826e-09 -7.15203e-09 -3.35952e-09 -2.09434e-09 -2.46807e-09 -3.10959e-09 3.0411e-08 2.34717e-10
          1.11119e-08 -6.15734e-09 -6.41223e-09 -4.59445e-09 -3.18665e-09 -3.77232e-09 -4.89289e-09 -3.39933e-09 -1.0059e-08 -2.56609e-09 -2.43181e-09 -3.25419e-09
          -1.06547e-08 6.94496e-10 -1.0291e-09 -2.87255e-08 -1.31857e-08 -1.73156e-08 -1.51083e-08 -1.0684e-08 -4.40966e-09 -5.75044e-09 -4.93527e-09 -1.60495e-08
          -1.14914e-09 -1.62968e-09 -3.59287e-09 -3.03382e-08 -3.83343e-08 -2.55333e-09 -5.23867e-08 -1.78069e-08 -3.78232e-08 -2.05125e-08 -1.52566e-08 -3.11902e-09
          -3.40758e-09 -4.51489e-09 -2.19866e-08 -9.22499e-10 -1.34067e-09 -3.89497e-09 -3.15961e-08 -3.46901e-08 -1.85401e-09 -1.96203e-08 -1.34464e-08 -6.27916e-08
          -1.57965e-08 -1.9929e-08 -2.93889e-09 -2.59319e-09 -4.89415e-09 -2.65824e-08 -7.99161e-10 -1.14082e-09 -4.05083e-09 -2.87872e-08 -3.20167e-08 -1.9581e-09
          -5.02752e-09 -6.65232e-09 -7.23843e-08 -8.75812e-09 -3.2392e-08 -2.7371e-09 -2.18261e-09 -4.81706e-09 -2.98078e-08 -1.02889e-09 -1.52945e-09 -4.57006e-09
          -2.60123e-08 -2.89046e-08 -1.88912e-09 -2.02411e-09 -4.27371e-09 -6.74827e-08 -5.09365e-09 -4.90774e-08 -1.9589e-09 -1.55033e-09 -5.83299e-09 -2.83001e-08
          -9.65102e-10 -1.39588e-09 -4.9875e-09 -2.20736e-08 -2.78872e-08 -3.76242e-09 -1.53395e-09 -3.95214e-09 -5.90266e-08 -3.99347e-09 -6.66799e-08 -1.63024e-09
          -1.22462e-09 -9.35973e-09 -2.4035e-08 -1.15975e-09 -1.31956e-09 -5.41951e-09 -1.62191e-08 -2.56061e-08 -4.92581e-09 -1.35421e-09 -5.45354e-09 -5.06362e-08
          -2.16989e-09 -7.81099e-08 -2.62717e-09 -1.21304e-09 -1.22483e-08 -2.00315e-08 -1.9823e-09 -1.37093e-09 -5.73303e-09 -1.26688e-08 -2.40118e-08 -5.67652e-09
          -1.0488e-09 -7.05745e-09 -4.58412e-08 -1.44285e-09 -8.12932e-08 -4.44495e-09 -2.10349e-09 -1.33403e-08 -1.5025e-08 -4.09591e-09 -2.48266e-09 -6.31399e-09
          -1.0923e-08 -2.29394e-08 -4.57063e-09 -1.23308e-09 -6.97453e-09 -4.38281e-08 -2.78058e-09 -8.51476e-08 -8.41676e-09 -1.57396e-09 -1.27511e-08 -7.96992e-09
          -7.13243e-09 -3.35239e-09 -6.11506e-09 -1.01053e-08 -2.40111e-08 -3.36306e-09 -1.95906e-09 -5.05118e-09 -4.0368e-08 -1.29266e-09 -8.56409e-08 -1.45139e-08
          -1.65474e-09 -7.86461e-09 -2.84466e-09 -7.96221e-09 -5.28761e-09 -5.40175e-09 -9.65337e-09 -2.05804e-08 -3.67849e-09 -3.04937e-09 -6.64711e-09 -4.07525e-08
          -8.61997e-10 -8.21432e-08 -1.93989e-08 -5.48841e-09 -4.37675e-09 -1.90896e-09 -6.98234e-09 -7.5213e-09 -4.51255e-09 -1.09648e-08 -1.40717e-08 -3.3771e-09
          -2.38983e-09 -7.8151e-09 -4.17533e-08 -1.12337e-09 -7.24062e-08 -2.25573e-08 -8.88986e-09 -4.99208e-09 -4.44824e-09 -9.6644e-09 -1.1898e-08 -3.52334e-09
          -1.17809e-08 -9.85388e-09 -2.47943e-09 -2.23256e-09 -1.0012e-08 -3.73248e-08 -2.65924e-09 -5.90612e-08 -2.34703e-08 -1.2393e-08 -3.4497e-09 -3.84368e-09
          -9.22093e-09 -1.84272e-08 -2.63804e-09 -1.19959e-08 -7.93846e-09 -1.48282e-09 -2.00982e-09 -1.49133e-08 -2.76904e-08 -3.80858e-09 -4.72036e-08 -2.58404e-08
          -1.72434e-08 -3.11452e-09 -3.31899e-09 -6.2395e-09 -2.30548e-08 -2.12284e-09 -1.11659e-08 -6.40955e-09 -1.65422e-09 -1.56276e-09 -1.85282e-08 -1.84267e-08
          -3.86048e-09 -3.49342e-08 -2.66731e-08 -2.66527e-08 -3.20866e-09 -3.51927e-09 -7.31067e-09 -2.66522e-08 -2.3458e-09 -9.36292e-09 -4.44662e-09 -1.32108e-09
          -1.25885e-09 -1.96427e-08 -1.13324e-08 -3.60233e-09 -2.62903e-08 -1.99471e-08 -4.4603e-08 -3.2447e-09 -3.28612e-09 -8.93351e-09 -2.83149e-08 -2.95999e-09
          -7.35047e-09 -3.5447e-09 -1.52186e-09 -1.22324e-09 -1.87478e-08 -7.30908e-09 -3.46607e-09 -2.11527e-08 -9.96976e-09 -5.8467e-08 -3.56498e-09 -4.07575e-09
          -1.09409e-08 -2.99738e-08 -3.30141e-09 -4.85382e-09 -2.40502e-09 -1.68927e-09 -1.39118e-09 -1.47391e-08 -6.402e-09 -3.82195e-09 -2.02802e-08 -6.33691e-09
          -6.14366e-08 -4.53038e-09 -6.17672e-09 -1.22653e-08 -3.21427e-08 -4.68941e-09 -2.38557e-09 -1.29363e-09 -1.19183e-09 -1.28037e-09 -8.51761e-09 -5.85087e-09
          -4.10421e-09 -2.1801e-08 -6.13306e-09 -5.50448e-08 -7.50198e-09 -1.066e-08 -1.70424e-08 -3.41128e-08 -5.92829e-09 -7.39705e-10 -5.49486e-10 -4.07918e-10
          -4.08778e-10 -2.35847e-09 -2.51447e-09 -2.05199e-09 -1.26315e-08 -6.33962e-09 -3.20326e-08 -1.37317e-08 -1.20091e-08 -1.36625e-08 -1.89944e-08 -3.18362e-09
        </DataArray>
        <DataArray type="Float32" Name="z[0]" NumberOfComponents="1" format="ascii">
          0.150578 0.150579 0.15058 0.150582 0.150582 0.150583 0.150584 0.150585 0.150585 0.150586 0.150587 0.150588
          0.150589 0.150591 0.150596 0.150581 0.150582 0.150583 0.150585 0.150586 0.150587 0.150587 0.150588 0.150588
          0.150589 0.15059 0.150591 0.150593 0.150595 0.150599 0.150584 0.150585 0.150587 0.150588 0.150589 0.15059
          0.15059 0.150591 0.150592 0.150593 0.150593 0.150595 0.150596 0.150598 0.150602 0.150588 0.150589 0.15059
          0.150591 0.150592 0.150593 0.150594 0.150594 0.150595 0.150596 0.150597 0.150598 0.150599 0.150601 0.150605
          0.150591 0.150592 0.150593 0.150594 0.150595 0.150596 0.150597 0.150598 0.150598 0.150599 0.1506 0.150601
          0.150602 0.150604 0.150609 0.150594 0.150595 0.150596 0.150597 0.150598 0.150599 0.150601 0.210715 0.150601