<?xml version="1.0"?>
<VTKFile type="UnstructuredGrid" version="0.1" byte_order="LittleEndian">
  <UnstructuredGrid>
    <Piece NumberOfCells="360" NumberOfPoints="800">
      <CellData Scalars="pressure[0]">
        <DataArray type="Float32" Name="pressure[0]" NumberOfComponents="1" format="ascii">
          2.0804e+07 2.08184e+07 2.12788e+07 2.17731e+07 2.22016e+07 2.27185e+07 2.28838e+07 2.29411e+07 2.30091e+07 2.30815e+07 2.33092e+07 2.36929e+07
          2.39778e+07 2.46558e+07 2.54529e+07 2.08476e+07 2.0862e+07 2.13651e+07 2.1863e+07 2.23499e+07 2.29106e+07 2.30339e+07 2.30776e+07 2.31485e+07
          2.32324e+07 2.35636e+07 2.39554e+07 2.41767e+07 2.48672e+07 2.56215e+07 2.08913e+07 2.09058e+07 2.14243e+07 2.19935e+07 2.24353e+07 2.29746e+07
          2.31289e+07 2.31974e+07 2.32943e+07 2.34164e+07 2.38751e+07 2.43305e+07 2.4525e+07 2.51389e+07 2.58382e+07 2.09355e+07 2.09503e+07 2.13035e+07
          2.21201e+07 2.25528e+07 2.31081e+07 2.32632e+07 2.33301e+07 2.34965e+07 2.37017e+07 2.43045e+07 2.47784e+07 2.49486e+07 2.54533e+07 2.61092e+07
          2.10271e+07 2.10533e+07 1.97609e+07 2.21934e+07 2.25496e+07 2.36307e+07 2.37542e+07 2.38062e+07 2.39866e+07 2.4334e+07 2.4813e+07 2.52028e+07
          2.53618e+07 2.58025e+07 2.63735e+07 2.12189e+07 2.12617e+07 2.14157e+07 2.31002e+07 2.37008e+07 2.42738e+07 2.43403e+07 2.4399e+07 2.45852e+07
          2.49289e+07 2.53386e+07 2.55603e+07 2.57349e+07 2.61542e+07 2.66691e+07 2.14633e+07 2.15122e+07 2.21356e+07 2.39954e+07 2.44825e+07 2.4902e+07
          2.49727e+07 2.50505e+07 2.51572e+07 2.5489e+07 2.57774e+07 2.58641e+07 2.60346e+07 2.65301e+07 2.70804e+07 2.18129e+07 2.18675e+07 2.30709e+07
          2.42469e+07 2.50079e+07 2.5429e+07 2.54841e+07 2.55357e+07 2.56413e+07 2.58862e+07 2.60622e+07 2.61267e+07 2.63613e+07 2.69128e+07 2.76477e+07
          2.23147e+07 2.23781e+07 2.34779e+07 2.44778e+07 2.55824e+07 2.59029e+07 2.60048e+07 2.61027e+07 2.61598e+07 2.62753e+07 2.63485e+07 2.63742e+07
          2.66205e+07 2.73405e+07 2.82114e+07 2.29192e+07 2.30212e+07 2.37013e+07 2.43895e+07 2.60923e+07 2.63207e+07 2.65486e+07 2.67556e+07 2.66883e+07
          2.66759e+07 2.66891e+07 2.67149e+07 2.69799e+07 2.77733e+07 2.85449e+07 2.38046e+07 2.39461e+07 2.43123e+07 2.4786e+07 2.6456e+07 2.66289e+07
          2.69932e+07 2.73036e+07 2.71606e+07 2.70831e+07 2.70386e+07 2.70589e+07 2.72922e+07 2.81483e+07 2.87977e+07 2.44852e+07 2.46111e+07 2.48986e+07
          2.53045e+07 2.68174e+07 2.69309e+07 2.74473e+07 2.78638e+07 2.79062e+07 2.75026e+07 2.74579e+07 2.75591e+07 2.79592e+07 2.85875e+07 2.95747e+07
          2.56313e+07 2.56647e+07 2.5677e+07 2.60399e+07 2.73278e+07 2.74424e+07 2.79975e+07 2.84816e+07 2.85796e+07 2.85486e+07 2.84865e+07 2.87095e+07
          2.92309e+07 3.00963e+07 3.02724e+07 2.66056e+07 2.66395e+07 2.64571e+07 2.68605e+07 2.81575e+07 2.82713e+07 2.87335e+07 2.90972e+07 2.9167e+07
          2.92458e+07 2.93098e+07 2.97809e+07 3.04266e+07 3.0937e+07 3.07003e+07 2.73703e+07 2.73706e+07 2.74018e+07 2.85014e+07 2.89902e+07 2.90533e+07
          2.93605e+07 2.95809e+07 2.9632e+07 2.97118e+07 2.98666e+07 3.06145e+07 3.11954e+07 3.13681e+07 3.12091e+07 2.80535e+07 2.80761e+07 2.81715e+07
          2.92425e+07 2.94808e+07 2.95355e+07 2.97525e+07 2.9895e+07 2.99441e+07 3.00177e+07 3.03082e+07 3.10239e+07 3.15561e+07 3.18599e+07 3.16884e+07
          2.87585e+07 2.88089e+07 2.91973e+07 2.97591e+07 2.98797e+07 2.99179e+07 3.00302e+07 3.01292e+07 3.0177e+07 3.024e+07 3.06249e+07 3.14778e+07
          3.20523e+07 3.23494e+07 3.21267e+07 2.9327e+07 2.93868e+07 2.97569e+07 3.00362e+07 3.01584e+07 3.02025e+07 3.02903e+07 3.03644e+07 3.04142e+07
          3.04718e+07 3.09453e+07 3.18474e+07 3.24349e+07 3.26778e+07 3.25627e+07 2.96392e+07 2.97055e+07 2.99239e+07 3.02393e+07 3.04023e+07 3.04499e+07
          3.05273e+07 3.05929e+07 3.06388e+07 3.06942e+07 3.12152e+07 3.22127e+07 3.28147e+07 3.29968e+07 3.31628e+07 2.98892e+07 2.99478e+07 3.01436e+07
          3.04571e+07 3.06175e+07 3.06657e+07 3.07411e+07 3.08035e+07 3.08497e+07 3.09113e+07 3.14278e+07 3.25277e+07 3.31893e+07 3.33327e+07 3.37333e+07
          3.00995e+07 3.01658e+07 3.03215e+07 3.06114e+07 3.08105e+07 3.08635e+07 3.09448e+07 3.1011e+07 3.10728e+07 3.11507e+07 3.1881e+07 3.30581e+07
          3.35375e+07 3.36892e+07 3.41788e+07 3.03009e+07 3.03698e+07 3.05085e+07 3.07916e+07 3.09944e+07 3.10526e+07 3.1147e+07 3.12231e+07 3.13034e+07
          3.13932e+07 3.23791e+07 3.36026e+07 3.38984e+07 3.40827e+07 3.46128e+07 3.04847e+07 3.05477e+07 3.07145e+07 3.10126e+07 3.11784e+07 3.12452e+07
          3.13566e+07 3.14449e+07 3.15487e+07 3.16607e+07 3.28029e+07 3.40539e+07 3.43078e+07 3.4514e+07 3.49259e+07 3.06528e+07 3.07128e+07 3.08592e+07
          3.11579e+07 3.137e+07 3.14386e+07 3.1564e+07 3.16671e+07 3.17938e+07 3.19447e+07 3.32702e+07 3.44474e+07 3.47292e+07 3.49162e+07 3.52035e+07
        </DataArray>
        <DataArray type="Float32" Name="pressure[1]" NumberOfComponents="1" format="ascii">
          2.0804e+07 2.08184e+07 2.12788e+07 2.17731e+07 2.22016e+07 2.27185e+07 2.28838e+07 2.29411e+07 2.30091e+07 2.30815e+07 2.33092e+07 2.36929e+07
          2.39778e+07 2.46558e+07 2.54529e+07 2.08476e+07 2.0862e+07 2.13651e+07 2.1863e+07 2.23499e+07 2.29106e+07 2.30339e+07 2.30776e+07 2.31485e+07
          2.32324e+07 2.35636e+07 2.39554e+07 2.41767e+07 2.48672e+07 2.56215e+07 2.08913e+07 2.09058e+07 2.14243e+07 2.19935e+07 2.24353e+07 2.29746e+07
          2.31289e+07 2.31974e+07 2.32943e+07 2.34164e+07 2.38751e+07 2.43305e+07 2.4525e+07 2.51389e+07 2.58382e+07 2.09355e+07 2.09503e+07 2.13035e+07
          2.21201e+07 2.25528e+07 2.31081e+07 2.32632e+07 2.33301e+07 2.34965e+07 2.37017e+07 2.43045e+07 2.47784e+07 2.49486e+07 2.54533e+07 2.61092e+07
          2.10271e+07 2.10533e+07 1.97609e+07 2.21934e+07 2.25496e+07 2.36307e+07 2.37542e+07 2.38062e+07 2.39866e+07 2.4334e+07 2.4813e+07 2.52028e+07
          2.53618e+07 2.58025e+07 2.63735e+07 2.12189e+07 2.12617e+07 2.14157e+07 2.31002e+07 2.37008e+07 2.42738e+07 2.43403e+07 2.4399e+07 2.45852e+07
          2.49289e+07 2.53386e+07 2.55603e+07 2.57349e+07 2.61542e+07 2.66691e+07 2.14633e+07 2.15122e+07 2.21356e+07 2.39954e+07 2.44825e+07 2.4902e+07
          2.49727e+07 2.50505e+07 2.51572e+07 2.5489e+07 2.57774e+07 2.58641e+07 2.60346e+07 2.65301e+07 2.70804e+07 2.18129e+07 2.18675e+07 2.30709e+07
          2.42469e+07 2.50079e+07 2.5429e+07 2.54841e+07 2.55357e+07 2.56413e+07 2.58862e+07 2.60622e+07 2.61267e+07 2.63613e+07 2.69128e+07 2.76477e+07
          2.23147e+07 2.23781e+07 2.34779e+07 2.44778e+07 2.55824e+07 2.59029e+07 2.60048e+07 2.61027e+07 2.61598e+07 2.62753e+07 2.63485e+07 2.63742e+07
          2.66205e+07 2.73405e+07 2.82114e+07 2.29192e+07 2.30212e+07 2.37013e+07 2.43895e+07 2.60923e+07 2.63207e+07 2.65486e+07 2.67556e+07 2.66883e+07
          2.66759e+07 2.66891e+07 2.67149e+07 2.69799e+07 2.77733e+07 2.85449e+07 2.38046e+07 2.39461e+07 2.43123e+07 2.4786e+07 2.6456e+07 2.66289e+07
          2.69932e+07 2.73036e+07 2.71606e+07 2.70831e+07 2.70386e+07 2.70589e+07 2.72922e+07 2.81483e+07 2.87977e+07 2.44852e+07 2.46111e+07 2.48986e+07
          2.53045e+07 2.68174e+07 2.69309e+07 2.74473e+07 2.78638e+07 2.79062e+07 2.75026e+07 2.74579e+07 2.75591e+07 2.79592e+07 2.85875e+07 2.95747e+07
          2.56313e+07 2.56647e+07 2.5677e+07 2.60399e+07 2.73278e+07 2.74424e+07 2.79975e+07 2.84816e+07 2.85796e+07 2.85486e+07 2.84865e+07 2.87095e+07
          2.92309e+07 3.00963e+07 3.02724e+07 2.66056e+07 2.66395e+07 2.64571e+07 2.68605e+07 2.81575e+07 2.82713e+07 2.87335e+07 2.90972e+07 2.9167e+07
          2.92458e+07 2.93098e+07 2.97809e+07 3.04266e+07 3.0937e+07 3.07003e+07 2.73703e+07 2.73706e+07 2.74018e+07 2.85014e+07 2.89902e+07 2.90533e+07
          2.93605e+07 2.95809e+07 2.9632e+07 2.97118e+07 2.98666e+07 3.06145e+07 3.11954e+07 3.13681e+07 3.12091e+07 2.80535e+07 2.80761e+07 2.81715e+07
          2.92425e+07 2.94808e+07 2.95355e+07 2.97525e+07 2.9895e+07 2.99441e+07 3.00177e+07 3.03082e+07 3.10239e+07 3.15561e+07 3.18599e+07 3.16884e+07
          2.87585e+07 2.88089e+07 2.91973e+07 2.97591e+07 2.98797e+07 2.99179e+07 3.00302e+07 3.01292e+07 3.0177e+07 3.024e+07 3.06249e+07 3.14778e+07
          3.20523e+07 3.23494e+07 3.21267e+07 2.9327e+07 2.93868e+07 2.97569e+07 3.00362e+07 3.01584e+07 3.02025e+07 3.02903e+07 3.03644e+07 3.04142e+07
          3.04718e+07 3.09453e+07 3.18474e+07 3.24349e+07 3.26778e+07 3.25627e+07 2.96392e+07 2.97055e+07 2.99239e+07 3.02393e+07 3.04023e+07 3.04499e+07
          3.05273e+07 3.05929e+07 3.06388e+07 3.06942e+07 3.12152e+07 3.22127e+07 3.28147e+07 3.29968e+07 3.31628e+07 2.98892e+07 2.99478e+07 3.01436e+07
          3.04571e+07 3.06175e+07 3.06657e+07 3.07411e+07 3.08035e+07 3.08497e+07 3.09113e+07 3.14278e+07 3.25277e+07 3.31893e+07 3.33327e+07 3.37333e+07
          3.00995e+07 3.01658e+07 3.03215e+07 3.06114e+07 3.08105e+07 3.08635e+07 3.09448e+07 3.1011e+07 3.10728e+07 3.11507e+07 3.1881e+07 3.30581e+07
          3.35375e+07 3.36892e+07 3.41788e+07 3.03009e+07 3.03698e+07 3.05085e+07 3.07916e+07 3.09944e+07 3.10526e+07 3.1147e+07 3.12231e+07 3.13034e+07
          3.13932e+07 3.23791e+07 3.36026e+07 3.38984e+07 3.40827e+07 3.46128e+07 3.04847e+07 3.05477e+07 3.07145e+07 3.10126e+07 3.11784e+07 3.12452e+07
          3.13566e+07 3.14449e+07 3.15487e+07 3.16607e+07 3.28029e+07 3.40539e+07 3.43078e+07 3.4514e+07 3.49259e+07 3.06528e+07 3.07128e+07 3.08592e+07
          3.11579e+07 3.137e+07 3.14386e+07 3.1564e+07 3.16671e+07 3.17938e+07 3.19447e+07 3.32702e+07 3.44474e+07 3.47292e+07 3.49162e+07 3.52035e+07
        </DataArray>
        <DataArray type="Float32" Name="pressure[2]" NumberOfComponents="1" format="ascii">
          2.0804e+07 2.08184e+07 2.12788e+07 2.17731e+07 2.22016e+07 2.27185e+07 2.28838e+07 2.29411e+07 2.30091e+07 2.30815e+07 2.33092e+07 2.36929e+07
          2.39778e+07 2.46558e+07 2.54529e+07 2.08476e+07 2.0862e+07 2.13651e+07 2.1863e+07 2.23499e+07 2.29106e+07 2.30339e+07 2.30776e+07 2.31485e+07
          2.32324e+07 2.35636e+07 2.39554e+07 2.41767e+07 2.48672e+07 2.56215e+07 2.08913e+07 2.09058e+07 2.14243e+07 2.19935e+07 2.24353e+07 2.29746e+07
          2.31289e+07 2.31974e+07 2.32943e+07 2.34164e+07 2.38751e+07 2.43305e+07 2.4525e+07 2.51389e+07 2.58382e+07 2.09355e+07 2.09503e+07 2.13035e+07
          2.21201e+07 2.25528e+07 2.31081e+07 2.32632e+07 2.33301e+07 2.34965e+07 2.37017e+07 2.43045e+07 2.47784e+07 2.49486e+07 2.54533e+07 2.61092e+07
          2.10271e+07 2.10533e+07 1.97609e+07 2.21934e+07 2.25496e+07 2.36307e+07 2.37542e+07 2.38062e+07 2.39866e+07 2.4334e+07 2.4813e+07 2.52028e+07
          2.53618e+07 2.58025e+07 2.63735e+07 2.12189e+07 2.12617e+07 2.14157e+07 2.31002e+07 2.37008e+07 2.42738e+07 2.43403e+07 2.4399e+07 2.45852e+07
          2.49289e+07 2.53386e+07 2.55603e+07 2.57349e+07 2.61542e+07 2.66691e+07 2.14633e+07 2.15122e+07 2.21356e+07 2.39954e+07 2.44825e+07 2.4902e+07
          2.49727e+07 2.50505e+07 2.51572e+07 2.5489e+07 2.57774e+07 2.58641e+07 2.60346e+07 2.65301e+07 2.70804e+07 2.18129e+07 2.18675e+07 2.30709e+07
          2.42469e+07 2.50079e+07 2.5429e+07 2.54841e+07 2.55357e+07 2.56413e+07 2.58862e+07 2.60622e+07 2.61267e+07 2.63613e+07 2.69128e+07 2.76477e+07
          2.23147e+07 2.23781e+07 2.34779e+07 2.44778e+07 2.55824e+07 2.59029e+07 2.60048e+07 2.61027e+07 2.61598e+07 2.62753e+07 2.63485e+07 2.63742e+07
          2.66205e+07 2.73405e+07 2.82114e+07 2.29192e+07 2.30212e+07 2.37013e+07 2.43895e+07 2.60923e+07 2.63207e+07 2.65486e+07 2.67556e+07 2.66883e+07
          2.66759e+07 2.66891e+07 2.67149e+07 2.69799e+07 2.77733e+07 2.85449e+07 2.38046e+07 2.39461e+07 2.43123e+07 2.4786e+07 2.6456e+07 2.66289e+07
          2.69932e+07 2.73036e+07 2.71606e+07 2.70831e+07 2.70386e+07 2.70589e+07 2.72922e+07 2.81483e+07 2.87977e+07 2.44852e+07 2.46111e+07 2.48986e+07
          2.53045e+07 2.68174e+07 2.69309e+07 2.74473e+07 2.78638e+07 2.79062e+07 2.75026e+07 2.74579e+07 2.75591e+07 2.79592e+07 2.85875e+07 2.95747e+07
          2.56313e+07 2.56647e+07 2.5677e+07 2.60399e+07 2.73278e+07 2.74424e+07 2.79975e+07 2.84816e+07 2.85796e+07 2.85486e+07 2.84865e+07 2.87095e+07
          2.92309e+07 3.00963e+07 3.02724e+07 2.66056e+07 2.66395e+07 2.64571e+07 2.68605e+07 2.81575e+07 2.82713e+07 2.87335e+07 2.90972e+07 2.9167e+07
          2.92458e+07 2.93098e+07 2.97809e+07 3.04266e+07 3.0937e+07 3.07003e+07 2.73703e+07 2.73706e+07 2.74018e+07 2.85014e+07 2.89902e+07 2.90533e+07
          2.93605e+07 2.95809e+07 2.9632e+07 2.97118e+07 2.98666e+07 3.06145e+07 3.11954e+07 3.13681e+07 3.12091e+07 2.80535e+07 2.80761e+07 2.81715e+07
          2.92425e+07 2.94808e+07 2.95355e+07 2.97525e+07 2.9895e+07 2.99441e+07 3.00177e+07 3.03082e+07 3.10239e+07 3.15561e+07 3.18599e+07 3.16884e+07
          2.87585e+07 2.88089e+07 2.91973e+07 2.97591e+07 2.98797e+07 2.99179e+07 3.00302e+07 3.01292e+07 3.0177e+07 3.024e+07 3.06249e+07 3.14778e+07
          3.20523e+07 3.23494e+07 3.21267e+07 2.9327e+07 2.93868e+07 2.97569e+07 3.00362e+07 3.01584e+07 3.02025e+07 3.02903e+07 3.03644e+07 3.04142e+07
          3.04718e+07 3.09453e+07 3.18474e+07 3.24349e+07 3.26778e+07 3.25627e+07 2.96392e+07 2.97055e+07 2.99239e+07 3.02393e+07 3.04023e+07 3.04499e+07
          3.05273e+07 3.05929e+07 3.06388e+07 3.06942e+07 3.12152e+07 3.22127e+07 3.28147e+07 3.29968e+07 3.31628e+07 2.98892e+07 2.99478e+07 3.01436e+07
          3.04571e+07 3.06175e+07 3.06657e+07 3.07411e+07 3.08035e+07 3.08497e+07 3.09113e+07 3.14278e+07 3.25277e+07 3.31893e+07 3.33327e+07 3.37333e+07
          3.00995e+07 3.01658e+07 3.03215e+07 3.06114e+07 3.08105e+07 3.08635e+07 3.09448e+07 3.1011e+07 3.10728e+07 3.11507e+07 3.1881e+07 3.30581e+07
          3.35375e+07 3.36892e+07 3.41788e+07 3.03009e+07 3.03698e+07 3.05085e+07 3.07916e+07 3.09944e+07 3.10526e+07 3.1147e+07 3.12231e+07 3.13034e+07
          3.13932e+07 3.23791e+07 3.36026e+07 3.38984e+07 3.40827e+07 3.46128e+07 3.04847e+07 3.05477e+07 3.07145e+07 3.10126e+07 3.11784e+07 3.12452e+07
          3.13566e+07 3.14449e+07 3.15487e+07 3.16607e+07 3.28029e+07 3.40539e+07 3.43078e+07 3.4514e+07 3.49259e+07 3.06528e+07 3.07128e+07 3.08592e+07
          3.11579e+07 3.137e+07 3.14386e+07 3.1564e+07 3.16671e+07 3.17938e+07 3.19447e+07 3.32702e+07 3.44474e+07 3.47292e+07 3.49162e+07 3.52035e+07
        </DataArray>
        <DataArray type="Float32" Name="velocity[0]" NumberOfComponents="1" format="ascii">
          -4.22628e-11 2.71527e-08 3.45417e-10 7.72722e-09 -9.65607e-11 -1.71101e-09 -1.44758e-09 5.44976e-10 3.3592e-10 -1.65659e-09 -2.36186e-09 -3.4803e-09
          -2.53727e-09 -7.75999e-10 -2.89864e-09 -1.35552e-09 7.89345e-08 7.17048e-10 1.43935e-08 3.77701e-10 1.42903e-09 5.56544e-09 3.24223e-09 -5.66753e-10
          -5.92063e-09 -4.98283e-09 -1.44458e-08 -9.00232e-09 -2.29113e-09 -7.64831e-09 -9.37513e-09 1.19752e-07 1.22108e-09 5.37014e-08 8.48297e-10 3.57082e-09
          7.87933e-09 3.75162e-09 -5.67319e-09 -1.22477e-08 -6.3022e-09 -3.56735e-08 -1.22833e-08 -4.51166e-09 -1.13328e-08 -2.27924e-08 1.49391e-07 5.86799e-09
          1.57999e-07 4.49165e-09 -1.0435e-08 -2.23611e-08 -2.42527e-08 -1.67988e-08 -2.23945e-08 -8.64203e-09 -6.23941e-08 -8.56452e-09 -6.2475e-09 -1.52319e-08
          -8.82901e-08 -2.29667e-08 4.27003e-10 2.47684e-08 -7.11399e-09 -4.76216e-08 -6.51334e-08 -6.71101e-08 -2.02328e-08 -2.08407e-08 -1.11677e-08 -1.00867e-07
          -4.25583e-09 -5.60732e-09 -1.85351e-08 -1.57115e-07 -1.92243e-07 -6.08589e-09 -1.20546e-07 -2.0987e-08 -1.14496e-07 -7.54567e-08 -1.05984e-07 -1.44341e-08
          -8.94596e-09 -1.43867e-08 -1.3777e-07 -2.44589e-09 -4.41823e-09 -2.06613e-08 -1.61358e-07 -1.72654e-07 -3.90069e-09 -4.01294e-08 -1.44518e-08 -1.73709e-07
          -5.69312e-08 -1.70161e-07 -1.0018e-08 -3.70787e-09 -1.64251e-08 -1.55836e-07 -1.96587e-09 -4.22893e-09 -2.20862e-08 -1.47641e-07 -1.6033e-07 -3.54859e-09
          -7.31262e-09 -8.80157e-09 -2.02134e-07 -3.22136e-08 -2.46636e-07 -6.4976e-09 -2.34608e-09 -1.74117e-08 -1.61889e-07 -1.53299e-09 -4.23287e-09 -2.37143e-08
          -1.31772e-07 -1.43185e-07 -1.64909e-09 -4.06367e-12 -7.57826e-09 -2.19265e-07 -1.19744e-08 -3.13023e-07 -4.69567e-09 -2.45339e-09 -2.75757e-08 -1.47355e-07
          -1.38556e-09 -3.77242e-09 -2.59032e-08 -1.04992e-07 -1.30023e-07 -7.78481e-09 3.89534e-10 -5.77788e-09 -2.23352e-07 -4.03147e-09 -3.80997e-07 -4.16928e-09
          -3.00908e-09 -4.64706e-08 -1.16014e-07 -2.01134e-09 -3.27797e-09 -2.80924e-08 -7.42357e-08 -1.15198e-07 -2.0776e-08 -2.04352e-09 -5.20658e-09 -2.21763e-07
          -1.36519e-09 -4.4555e-07 -4.74609e-09 -4.43044e-09 -6.59996e-08 -7.43818e-08 -4.73534e-09 -4.17736e-09 -2.9969e-08 -4.76917e-08 -8.28665e-08 -4.41445e-08
          -2.26889e-09 -7.92417e-09 -2.2493e-07 -1.13973e-09 -4.88074e-07 -1.50759e-08 -6.18943e-09 -5.88991e-08 -4.14563e-08 -1.3422e-08 -7.69495e-09 -3.12686e-08
          -3.41391e-08 -6.80373e-08 -4.93055e-08 -4.18322e-09 -1.27302e-08 -2.13537e-07 -1.63697e-09 -4.99239e-07 -4.50871e-08 -7.37588e-09 -3.27554e-08 -2.11847e-08
          -2.70262e-08 -1.40016e-08 -3.16946e-08 -3.67449e-08 -7.87237e-08 -2.90376e-08 -5.09068e-09 -1.91307e-08 -1.98968e-07 -1.67835e-09 -4.70254e-07 -7.87144e-08
          -1.2472e-08 -1.84124e-08 -6.56467e-09 -3.1916e-08 -2.51711e-08 -3.01707e-08 -4.52535e-08 -7.33081e-08 -1.60384e-08 -3.59761e-09 -2.57549e-08 -1.97925e-07
          -1.19147e-09 -4.24955e-07 -9.50867e-08 -2.1039e-08 -1.2528e-08 -3.4551e-09 -2.96787e-08 -3.92623e-08 -2.67422e-08 -5.6014e-08 -5.82249e-08 -7.89028e-09
          -3.28506e-09 -3.16717e-08 -1.95435e-07 -1.4753e-09 -3.60692e-07 -9.93831e-08 -3.00568e-08 -7.79424e-09 -4.7054e-09 -3.35944e-08 -5.76978e-08 -2.23586e-08
          -5.98722e-08 -4.58634e-08 -3.71367e-09 -4.29332e-09 -4.47738e-08 -1.70846e-07 -2.85491e-09 -2.85375e-07 -1.00128e-07 -4.69939e-08 -3.32656e-09 -4.66041e-09
          -2.73849e-08 -8.55264e-08 -1.76608e-08 -5.85527e-08 -3.62657e-08 -1.58863e-09 -2.89822e-09 -6.61544e-08 -1.2285e-07 -4.3783e-09 -2.17833e-07 -1.07946e-07
          -7.08983e-08 -2.37524e-09 -3.15752e-09 -1.7782e-08 -1.11692e-07 -1.37217e-08 -5.25728e-08 -2.58356e-08 -1.08316e-09 -1.16576e-09 -8.21824e-08 -7.81285e-08
          -4.61158e-09 -1.55342e-07 -1.07802e-07 -1.11277e-07 -1.38681e-09 -2.60417e-09 -2.32387e-08 -1.27581e-07 -1.19741e-08 -4.35129e-08 -1.73846e-08 -1.32641e-09
          -5.56741e-10 -8.79092e-08 -4.45819e-08 -3.85895e-09 -1.13681e-07 -6.97049e-08 -1.92781e-07 -2.41795e-09 -3.69876e-09 -3.45619e-08 -1.35217e-07 -1.28553e-08
          -3.32247e-08 -1.17181e-08 -1.23663e-09 -1.37165e-10 -8.19995e-08 -2.34075e-08 -3.31865e-09 -8.94402e-08 -2.91642e-08 -2.67447e-07 -3.7898e-09 -6.8107e-09
          -4.20698e-08 -1.41239e-07 -1.4743e-08 -2.08893e-08 -5.97431e-09 -1.97946e-09 -7.58879e-10 -6.07649e-08 -1.59788e-08 -3.2504e-09 -8.443e-08 -1.5825e-08
          -2.82744e-07 -3.46005e-09 -1.30968e-08 -4.60436e-08 -1.47345e-07 -1.82734e-08 -9.74842e-09 -2.38785e-09 -8.9276e-10 -5.01675e-10 -3.04071e-08 -1.1959e-08
          -2.6707e-09 -8.91203e-08 -1.27561e-08 -2.43617e-07 -4.80209e-09 -2.25869e-08 -6.02958e-08 -1.53432e-07 -2.38345e-08 -2.58247e-09 -5.37909e-10 1.98582e-10
          7.52262e-11 -7.19453e-09 -4.57006e-09 -9.78294e-10 -4.54274e-08 -5.9421e-09 -1.05329e-07 -3.1678e-09 -1.3702e-08 -3.59801e-08 -7.88336e-08 -1.33777e-08
        </DataArray>
        <DataArray type="Float32" Name="velocity[1]" NumberOfComponents="1" format="ascii">
          6.56814e-27 4.29976e-24 3.52568e-26 1.2009e-24 1.50067e-26 0 2.24971e-25 -9.3455e-26 -3.41596e-26 6.17834e-24 -3.89613e-24 -7.03995e-27
          2.48194e-24 -9.6328e-25 4.50864e-25 1.97527e-25 3.75839e-24 4.26776e-26 -1.64881e-25 -8.6493e-26 8.88481e-24 1.44873e-24 3.76262e-25 -8.52992e-24
          -7.50191e-27 0 5.58367e-27 -5.56544e-27 -2.15765e-28 2.87671e-25 1.04882e-24 -5.84258e-24 -1.27207e-24 6.27379e-24 -3.98243e-26 0
          1.00192e-24 2.59801e-25 -6.01109e-25 0 7.4476e-24 -1.23152e-23 0 1.13837e-24 -2.84237e-25 2.08566e-24 9.86517e-24 -1.26253e-24
          -1.5485e-23 -1.24231e-24 1.30728e-23 -2.86211e-23 3.64624e-23 -3.4848e-24 1.12751e-24 3.93935e-24 -4.71022e-24 2.87519e-24 -1.28265e-24 9.62696e-25
          -7.25034e-26 -5.7754e-23 4.79789e-24 7.79753e-24 -1.42809e-25 -3.92238e-24 -4.26163e-26 -2.53738e-26 6.76173e-25 -5.66022e-24 4.24179e-24 -7.92875e-24
          4.39706e-28 1.39272e-25 -1.53645e-24 -1.00341e-25 5.139e-24 -3.00598e-26 3.60989e-24 -2.82098e-26 -6.28178e-24 0 -9.43439e-27 4.30782e-25
          6.70858e-25 -3.07101e-25 7.50867e-24 -1.2373e-24 7.34791e-25 1.53708e-24 -7.64634e-25 6.38595e-25 0 4.30259e-24 -8.35841e-25 -1.08421e-23
          5.53437e-26 2.55544e-26 -1.63959e-24 -8.88594e-28 3.84354e-28 2.06123e-28 1.43248e-26 2.40593e-28 -1.67456e-24 -1.48673e-25 1.17269e-23 1.74157e-24
          1.39552e-24 4.47437e-26 1.32479e-23 -4.94389e-27 3.82912e-27 3.36513e-25 6.05044e-27 -2.24255e-24 -1.17269e-23 1.10038e-28 -3.22668e-25 1.9276e-24
          -1.36721e-24 -8.05594e-24 1.10998e-25 -2.41255e-24 -9.92205e-26 2.45861e-24 0 0 3.1233e-25 -1.64886e-28 1.83309e-25 4.33011e-24
          1.2896e-28 5.63239e-26 3.69561e-28 -9.62524e-24 1.0831e-24 1.40773e-24 -4.5033e-25 -2.1139e-24 2.85876e-24 -5.35688e-24 5.63738e-24 -1.55176e-25
          -6.37856e-26 1.87057e-25 3.6303e-24 -7.93464e-25 0 -2.09806e-24 3.21084e-24 1.46104e-25 9.66673e-25 -2.0969e-25 2.03719e-24 -7.44124e-28
          -3.49473e-24 8.79936e-24 5.86448e-26 1.56914e-25 -5.63311e-25 6.114e-24 1.77917e-24 -2.43279e-25 1.2164e-25 -2.56656e-24 7.08753e-24 -2.65917e-24
          -1.4462e-25 -1.45773e-24 -1.76261e-23 2.94768e-26 2.21486e-24 -3.42328e-24 -1.15994e-25 1.47366e-24 2.5828e-24 -1.3574e-24 9.50571e-25 -7.98434e-26
          2.73916e-24 4.66934e-24 0 -2.25676e-25 4.17683e-25 2.0701e-24 4.79885e-26 -4.73094e-25 -3.11786e-24 5.34626e-28 -1.83347e-24 -7.47209e-25
          1.14949e-24 -7.90479e-25 -2.91418e-28 2.32467e-25 1.48502e-28 8.63998e-25 1.68825e-25 3.90755e-28 1.45232e-23 -4.09891e-26 -4.02621e-24 5.72084e-24
          -9.87723e-25 1.83299e-24 1.97374e-24 -4.02464e-24 1.80744e-28 -2.23284e-24 -2.97158e-24 -5.06386e-24 1.96297e-28 3.53253e-25 4.52136e-25 6.31456e-28
          -3.42952e-26 -7.3973e-24 1.94955e-24 0 0 2.73018e-25 3.39623e-24 -4.27793e-25 4.15629e-24 0 1.07945e-24 0
          -3.04678e-25 4.67742e-25 4.33987e-28 7.84061e-26 -6.97513e-24 7.86089e-29 -6.81432e-30 -1.06629e-28 3.61627e-24 -2.04406e-28 -1.07452e-24 -1.92287e-24
          1.45603e-28 8.41603e-25 2.20965e-28 -5.82323e-26 1.56892e-24 -8.93812e-24 0 -9.21052e-24 0 1.41243e-28 2.67933e-24 -3.3235e-24
          -1.53219e-24 2.04883e-28 1.19301e-24 0 3.14303e-24 0 3.62795e-25 1.49369e-24 4.35686e-24 1.00421e-25 -5.76648e-24 -4.94979e-24
          -1.8768e-24 1.58227e-25 4.6216e-26 2.89022e-30 -1.55746e-24 -9.39495e-25 3.73167e-24 -1.91596e-24 2.07437e-24 -1.68206e-24 7.36997e-25 7.51636e-24
          -6.41671e-26 -3.94521e-24 9.05281e-24 4.78629e-24 -2.87773e-24 6.29421e-26 8.08322e-25 -3.67722e-28 9.21425e-25 6.31547e-29 -3.39116e-24 7.35797e-25
          -1.53911e-24 3.061e-25 -2.32348e-24 -1.05272e-25 -5.05862e-24 -4.56972e-24 8.26986e-24 2.34919e-25 3.08656e-24 9.51334e-25 -3.10372e-25 -7.66403e-25
          -8.97979e-25 5.39184e-25 0 -3.49269e-26 -1.07153e-24 3.86099e-24 -6.78791e-24 6.78857e-24 -4.96779e-24 1.08298e-27 0 0
          2.15553e-25 -5.73474e-28 1.21479e-24 -1.01909e-24 -1.07183e-24 9.88057e-25 -1.65856e-24 -7.31217e-25 -1.14808e-24 2.02462e-26 4.59464e-25 -3.24446e-24
          1.17146e-23 -2.2477e-25 -5.63565e-24 4.01725e-25 8.21442e-25 -6.85316e-29 -7.12146e-25 -1.1094e-28 -2.23539e-28 1.00703e-25 -2.48959e-24 4.38332e-25
          -1.10982e-25 8.86395e-24 -3.68429e-24 0 -2.38326e-25 -7.48325e-25 5.72997e-24 -6.58901e-25 0 -4.01578e-25 -1.66115e-28 -3.26865e-25
          5.54445e-25 -1.11785e-24 -1.87288e-24 -3.04791e-25 -2.38711e-24 9.23472e-25 -2.55712e-23 0 2.55982e-23 -1.88044e-23 1.55593e-23 3.90222e-25
        </DataArray>
        <DataArray type="Float32" Name="velocity[2]" NumberOfComponents="1" format="ascii">
          -3.81767e-12 3.46327e-09 -2.60595e-09 -1.69846e-09 -3.44816e-09 -3.64674e-09 -3.49557e-09 -3.12785e-09 -3.21409e-09 -3.53408e-09 -3.44503e-09 -3.28744e-09
          -2.74512e-09 -2.16612e-09 -1.47653e-09 -1.5383e-10 1.288e-08 -2.09999e-09 3.71623e-10 -2.09257e-09 -2.17715e-09 -1.91981e-09 -2.62192e-09 -3.29227e-09
          -4.07059e-09 -3.78489e-09 -4.9915e-09 -3.32522e-09 -1.75939e-09 -1.96487e-09 -1.20102e-09 2.12136e-08 -5.1907e-10 6.6837e-09 -4.64745e-09 -4.0383e-09
          -3.00843e-09 -3.53733e-09 -4.93703e-09 -5.72117e-09 -4.44813e-09 -8.7302e-09 -3.82871e-09 -2.26305e-09 -2.60876e-09 -3.5682e-09 2.65642e-08 2.44698e-10
          2.35279e-08 -6.90285e-09 -9.1881e-09 -1.01338e-08 -9.11957e-09 -6.66904e-09 -6.96072e-09 -4.1892e-09 -1.28186e-08 -2.765e-09 -2.51919e-09 -3.37316e-09
          -1.16154e-08 9.04732e-10 -5.97309e-10 -1.48935e-09 -8.77683e-09 -1.38835e-08 -1.52877e-08 -1.47012e-08 -6.23615e-09 -6.90443e-09 -5.45312e-09 -1.96771e-08
          -1.19267e-09 -1.66298e-09 -3.68015e-09 -2.69952e-08 -3.32737e-08 -1.44261e-09 -2.44197e-08 -9.54548e-09 -2.42231e-08 -1.56729e-08 -2.06907e-08 -4.09138e-09
          -3.43871e-09 -4.44575e-09 -2.53933e-08 -8.85432e-10 -1.32086e-09 -3.93884e-09 -2.87808e-08 -3.12008e-08 -1.4519e-09 -9.199e-09 -6.40878e-09 -3.39393e-08
          -1.27895e-08 -3.19262e-08 -2.72352e-09 -1.81023e-09 -4.10192e-09 -2.82813e-08 -7.43552e-10 -1.11919e-09 -4.07264e-09 -2.65012e-08 -2.9594e-08 -2.45231e-09
          -3.46859e-09 -4.01475e-09 -3.77015e-08 -7.675e-09 -4.49478e-08 -1.74442e-09 -1.07888e-09 -3.67871e-09 -2.91326e-08 -9.27746e-10 -1.45604e-09 -4.545e-09
          -2.3699e-08 -2.65021e-08 -1.93457e-09 -1.8815e-09 -3.42593e-09 -4.04543e-08 -3.73517e-09 -5.61159e-08 -9.54957e-10 -5.9745e-10 -4.43536e-09 -2.58028e-08
          -8.78836e-10 -1.33456e-09 -4.93154e-09 -1.97131e-08 -2.55067e-08 -3.53752e-09 -1.37927e-09 -2.40719e-09 -4.09688e-08 -2.48902e-09 -6.80534e-08 -6.27241e-10
          -3.9456e-10 -7.43048e-09 -2.01264e-08 -1.05189e-09 -1.28166e-09 -5.3169e-09 -1.3852e-08 -2.22667e-08 -5.50047e-09 -1.67325e-09 -2.22162e-09 -4.03174e-08
          -1.40655e-09 -7.89874e-08 -4.81282e-10 -3.625e-10 -1.05532e-08 -1.28587e-08 -1.86564e-09 -1.43022e-09 -5.54543e-09 -9.39053e-09 -1.7714e-08 -1.05416e-08
          -1.64974e-09 -2.51075e-09 -4.0574e-08 -1.01819e-09 -8.64959e-08 -2.11372e-09 7.99304e-11 -1.026e-08 -8.78195e-09 -3.94793e-09 -2.11216e-09 -5.68495e-09
          -5.9459e-09 -1.14507e-08 -8.78766e-09 -1.79728e-09 -3.08878e-09 -3.89749e-08 -2.22178e-09 -9.00387e-08 -8.83396e-09 -9.63143e-10 -6.00176e-09 -5.23653e-09
          -6.4681e-09 -3.04177e-09 -5.55523e-09 -6.37843e-09 -1.35435e-08 -5.36539e-09 -1.88868e-09 -4.19325e-09 -3.57594e-08 -1.04325e-09 -8.43512e-08 -1.51996e-08
          -2.52084e-09 -3.70986e-09 -2.13226e-09 -6.9519e-09 -4.70567e-09 -4.84153e-09 -7.51221e-09 -1.23984e-08 -3.11572e-09 -1.37863e-09 -5.17819e-09 -3.53717e-08
          -6.7624e-10 -7.59225e-08 -1.81039e-08 -4.72212e-09 -3.10993e-09 -1.55854e-09 -6.16844e-09 -6.71643e-09 -4.05045e-09 -9.62715e-09 -1.01143e-08 -1.8832e-09
          -1.33683e-09 -6.15034e-09 -3.49936e-08 -9.05158e-10 -6.54304e-08 -2.04603e-08 -7.94209e-09 -4.06702e-09 -3.69873e-09 -8.46906e-09 -1.05271e-08 -3.14543e-09
          -1.055e-08 -8.34314e-09 -1.24636e-09 -1.39493e-09 -7.97615e-09 -3.06893e-08 -2.06434e-09 -5.26704e-08 -2.08614e-08 -1.10672e-08 -2.92487e-09 -3.26911e-09
          -8.01455e-09 -1.62329e-08 -2.34445e-09 -1.04201e-08 -6.79465e-09 -1.0086e-09 -1.44757e-09 -1.20841e-08 -2.26948e-08 -3.01401e-09 -4.16113e-08 -2.2718e-08
          -1.51889e-08 -2.65506e-09 -2.83414e-09 -5.40484e-09 -2.0277e-08 -1.87546e-09 -9.57192e-09 -5.47393e-09 -1.34783e-09 -1.28512e-09 -1.53164e-08 -1.52168e-08
          -3.13246e-09 -3.03993e-08 -2.32154e-08 -2.32179e-08 -2.73859e-09 -3.00769e-09 -6.32366e-09 -2.33973e-08 -2.07243e-09 -7.97202e-09 -3.77623e-09 -1.1092e-09
          -1.06058e-09 -1.64436e-08 -9.44868e-09 -2.97453e-09 -2.27829e-08 -1.72264e-08 -3.85647e-08 -2.77325e-09 -2.81339e-09 -7.75746e-09 -2.48031e-08 -2.59919e-09
          -6.24388e-09 -3.01033e-09 -1.28897e-09 -1.03721e-09 -1.58288e-08 -6.15555e-09 -2.90939e-09 -1.83134e-08 -8.56578e-09 -5.03928e-08 -3.05099e-09 -3.49546e-09
          -9.5235e-09 -2.62082e-08 -2.89638e-09 -4.12069e-09 -2.04169e-09 -1.43354e-09 -1.18117e-09 -1.25074e-08 -5.43112e-09 -3.23927e-09 -1.74716e-08 -5.42734e-09
          -5.28723e-08 -3.88344e-09 -5.31419e-09 -1.06708e-08 -2.80516e-08 -4.10235e-09 -2.02462e-09 -1.09798e-09 -1.0119e-09 -1.08757e-09 -7.24796e-09 -4.98095e-09
          -3.49382e-09 -1.87106e-08 -5.25123e-09 -4.73299e-08 -6.43898e-09 -9.18831e-09 -1.47707e-08 -2.97093e-08 -5.17654e-09 -6.2764e-10 -4.66328e-10 -3.46337e-10
          -3.47367e-10 -2.00942e-09 -2.1438e-09 -1.74996e-09 -1.08254e-08 -5.43091e-09 -2.75245e-08 -1.17917e-08 -1.03368e-08 -1.18057e-08 -1.65115e-08 -2.77741e-09
        </DataArray>
        <DataArray type="Float32" Name="z[0]" NumberOfComponents="1" format="ascii">
          0.150578 0.150579 0.15058 0.150582 0.150582 0.150583 0.150584 0.150585 0.150585 0.150586 0.150587 0.150588
          0.150589 0.150591 0.150596 0.150581 0.150582 0.150583 0.150585 0.150586 0.150587 0.150587 0.150588 0.150588
          0.150589 0.15059 0.150591 0.150593 0.150595 0.150599 0.150584 0.150585 0.150587 0.150588 0.150589 0.15059
          0.15059 0.150591 0.150592 0.150593 0.150593 0.150595 0.150596 0.150598 0.150602 0.150588 0.150589 0.15059
          0.150591 0.150592 0.158996 0.168594 0.183331 0.150595 0.150596 0.150597 0.150598 0.150599 0.150601 0.150605
          0.150591 0.150592 0.150594 0.245942 0.261551 0.4006 0.394591 0.388851 0.150598 0.150599 0.1506 0.150601
          0.150602 0.150604 0.150609 0.150594 0.150595 0.155946 0.40863 0.434691 0.444318 0.414375 0.405359 0.150601