<?xml version="1.0"?>
<VTKFile type="UnstructuredGrid" version="0.1" byte_order="LittleEndian">
  <UnstructuredGrid>
    <Piece NumberOfCells="360" NumberOfPoints="800">
      <CellData Scalars="pressure[0]">
        <DataArray type="Float32" Name="pressure[0]" NumberOfComponents="1" format="ascii">
          2.11703e+07 2.1185e+07 2.22136e+07 2.31021e+07 2.34617e+07 2.38778e+07 2.40128e+07 2.40619e+07 2.41212e+07 2.41839e+07 2.43525e+07 2.46363e+07
          2.48542e+07 2.54533e+07 2.61626e+07 2.12148e+07 2.12295e+07 2.23686e+07 2.33081e+07 2.36624e+07 2.40747e+07 2.41716e+07 2.42092e+07 2.42691e+07
          2.43393e+07 2.45786e+07 2.48716e+07 2.50415e+07 2.56493e+07 2.63274e+07 2.12597e+07 2.12742e+07 2.24333e+07 2.34778e+07 2.37975e+07 2.41794e+07
          2.42978e+07 2.43537e+07 2.44312e+07 2.45293e+07 2.48571e+07 2.51925e+07 2.53532e+07 2.59019e+07 2.65336e+07 2.13054e+07 2.13255e+07 2.22611e+07
          2.36249e+07 2.39329e+07 2.43093e+07 2.44901e+07 2.45694e+07 2.46754e+07 2.48105e+07 2.5223e+07 2.55978e+07 2.5749e+07 2.6195e+07 2.6787e+07
          2.13795e+07 2.1409e+07 1.97743e+07 2.37515e+07 2.43356e+07 2.4928e+07 2.50111e+07 2.50526e+07 2.5124e+07 2.53905e+07 2.56929e+07 2.60254e+07
          2.61457e+07 2.65183e+07 2.70346e+07 2.15642e+07 2.16078e+07 2.18624e+07 2.44835e+07 2.49919e+07 2.54541e+07 2.55252e+07 2.56108e+07 2.59145e+07
          2.67201e+07 2.6631e+07 2.64226e+07 2.65135e+07 2.68435e+07 2.73092e+07 2.17921e+07 2.18412e+07 2.25785e+07 2.51959e+07 2.56187e+07 2.59714e+07
          2.60288e+07 2.60957e+07 2.61578e+07 2.64458e+07 2.66275e+07 2.66762e+07 2.67825e+07 2.71845e+07 2.76833e+07 2.21127e+07 2.21661e+07 2.30829e+07
          2.56613e+07 2.61385e+07 2.64022e+07 2.64542e+07 2.65009e+07 2.65585e+07 2.67103e+07 2.68357e+07 2.68942e+07 2.70668e+07 2.75317e+07 2.81921e+07
          2.25511e+07 2.26079e+07 2.35305e+07 2.59195e+07 2.66164e+07 2.68354e+07 2.69189e+07 2.69986e+07 2.69701e+07 2.70186e+07 2.70718e+07 2.71038e+07
          2.72962e+07 2.7917e+07 2.86979e+07 2.31e+07 2.31899e+07 2.40389e+07 2.51989e+07 2.69957e+07 2.72115e+07 2.7405e+07 2.7586e+07 2.74182e+07
          2.73601e+07 2.73583e+07 2.73724e+07 2.76146e+07 2.83106e+07 2.90071e+07 2.39925e+07 2.44932e+07 2.49448e+07 2.56092e+07 2.73305e+07 2.74975e+07
          2.78118e+07 2.80887e+07 2.78887e+07 2.7766e+07 2.77184e+07 2.78176e+07 2.79922e+07 2.86627e+07 2.95738e+07 2.56348e+07 2.57942e+07 2.59105e+07
          2.6299e+07 2.76765e+07 2.77801e+07 2.82315e+07 2.86092e+07 2.86954e+07 2.85579e+07 2.84881e+07 2.85521e+07 2.89556e+07 2.95603e+07 3.02345e+07
          2.66837e+07 2.67174e+07 2.66048e+07 2.70096e+07 2.81425e+07 2.82445e+07 2.87295e+07 2.91594e+07 2.92553e+07 2.92918e+07 2.93086e+07 2.95037e+07
          2.99431e+07 3.06677e+07 3.0818e+07 2.75073e+07 2.75393e+07 2.73115e+07 2.82106e+07 2.89067e+07 2.89834e+07 2.93831e+07 2.97027e+07 2.97696e+07
          2.9855e+07 2.99408e+07 3.03627e+07 3.0915e+07 3.13493e+07 3.11989e+07 2.81769e+07 2.81787e+07 2.81939e+07 2.92209e+07 2.96107e+07 2.96679e+07
          2.99362e+07 3.01294e+07 3.01788e+07 3.02549e+07 3.04003e+07 3.10535e+07 3.15644e+07 3.17314e+07 3.16459e+07 2.87808e+07 2.88093e+07 2.89164e+07
          2.98404e+07 3.00452e+07 3.00982e+07 3.02887e+07 3.04158e+07 3.04633e+07 3.05325e+07 3.07928e+07 3.14208e+07 3.18901e+07 3.21666e+07 3.20693e+07
          2.94026e+07 2.94545e+07 2.98245e+07 3.02976e+07 3.04055e+07 3.04449e+07 3.05479e+07 3.06381e+07 3.06847e+07 3.07451e+07 3.10843e+07 3.18285e+07
          3.2332e+07 3.26012e+07 3.24596e+07 2.9909e+07 2.9968e+07 3.03011e+07 3.0555e+07 3.06677e+07 3.07122e+07 3.07934e+07 3.08614e+07 3.09098e+07
          3.09656e+07 3.138e+07 3.21647e+07 3.26785e+07 3.29021e+07 3.28489e+07 3.02022e+07 3.02668e+07 3.04662e+07 3.07509e+07 3.08997e+07 3.0947e+07
          3.10189e+07 3.10794e+07 3.11243e+07 3.11783e+07 3.16327e+07 3.24981e+07 3.30237e+07 3.31954e+07 3.3376e+07 3.04408e+07 3.04987e+07 3.0678e+07
          3.09604e+07 3.11069e+07 3.11547e+07 3.12246e+07 3.12821e+07 3.13273e+07 3.13866e+07 3.18365e+07 3.27885e+07 3.33646e+07 3.35031e+07 3.38791e+07
          3.06447e+07 3.07093e+07 3.08533e+07 3.11148e+07 3.12949e+07 3.13468e+07 3.14217e+07 3.14822e+07 3.15409e+07 3.16141e+07 3.22466e+07 3.32636e+07
          3.36831e+07 3.38284e+07 3.42787e+07 3.08408e+07 3.09076e+07 3.10367e+07 3.12919e+07 3.14752e+07 3.15316e+07 3.16175e+07 3.16863e+07 3.17609e+07
          3.18444e+07 3.26947e+07 3.37501e+07 3.40121e+07 3.41851e+07 3.46688e+07 3.10214e+07 3.10831e+07 3.12367e+07 3.15048e+07 3.16555e+07 3.17193e+07
          3.18196e+07 3.1899e+07 3.19935e+07 3.2096e+07 3.30791e+07 3.41568e+07 3.43823e+07 3.45741e+07 3.49577e+07 3.11884e+07 3.12474e+07 3.13831e+07
          3.16515e+07 3.18424e+07 3.19077e+07 3.20201e+07 3.21119e+07 3.22261e+07 3.23617e+07 3.35005e+07 3.45145e+07 3.47637e+07 3.49388e+07 3.52168e+07
        </DataArray>
        <DataArray type="Float32" Name="pressure[1]" NumberOfComponents="1" format="ascii">
          2.11703e+07 2.1185e+07 2.22136e+07 2.31021e+07 2.34617e+07 2.38778e+07 2.40128e+07 2.40619e+07 2.41212e+07 2.41839e+07 2.43525e+07 2.46363e+07
          2.48542e+07 2.54533e+07 2.61626e+07 2.12148e+07 2.12295e+07 2.23686e+07 2.33081e+07 2.36624e+07 2.40747e+07 2.41716e+07 2.42092e+07 2.42691e+07
          2.43393e+07 2.45786e+07 2.48716e+07 2.50415e+07 2.56493e+07 2.63274e+07 2.12597e+07 2.12742e+07 2.24333e+07 2.34778e+07 2.37975e+07 2.41794e+07
          2.42978e+07 2.43537e+07 2.44312e+07 2.45293e+07 2.48571e+07 2.51925e+07 2.53532e+07 2.59019e+07 2.65336e+07 2.13054e+07 2.13255e+07 2.22611e+07
          2.36249e+07 2.39329e+07 2.43093e+07 2.44901e+07 2.45694e+07 2.46754e+07 2.48105e+07 2.5223e+07 2.55978e+07 2.5749e+07 2.6195e+07 2.6787e+07
          2.13795e+07 2.1409e+07 1.97743e+07 2.37515e+07 2.43356e+07 2.4928e+07 2.50111e+07 2.50526e+07 2.5124e+07 2.53905e+07 2.56929e+07 2.60254e+07
          2.61457e+07 2.65183e+07 2.70346e+07 2.15642e+07 2.16078e+07 2.18624e+07 2.44835e+07 2.49919e+07 2.54541e+07 2.55252e+07 2.56108e+07 2.59145e+07
          2.67201e+07 2.6631e+07 2.64226e+07 2.65135e+07 2.68435e+07 2.73092e+07 2.17921e+07 2.18412e+07 2.25785e+07 2.51959e+07 2.56187e+07 2.59714e+07
          2.60288e+07 2.60957e+07 2.61578e+07 2.64458e+07 2.66275e+07 2.66762e+07 2.67825e+07 2.71845e+07 2.76833e+07 2.21127e+07 2.21661e+07 2.30829e+07
          2.56613e+07 2.61385e+07 2.64022e+07 2.64542e+07 2.65009e+07 2.65585e+07 2.67103e+07 2.68357e+07 2.68942e+07 2.70668e+07 2.75317e+07 2.81921e+07
          2.25511e+07 2.26079e+07 2.35305e+07 2.59195e+07 2.66164e+07 2.68354e+07 2.69189e+07 2.69986e+07 2.69701e+07 2.70186e+07 2.70718e+07 2.71038e+07
          2.72962e+07 2.7917e+07 2.86979e+07 2.31e+07 2.31899e+07 2.40389e+07 2.51989e+07 2.69957e+07 2.72115e+07 2.7405e+07 2.7586e+07 2.74182e+07
          2.73601e+07 2.73583e+07 2.73724e+07 2.76146e+07 2.83106e+07 2.90071e+07 2.39925e+07 2.44932e+07 2.49448e+07 2.56092e+07 2.73305e+07 2.74975e+07
          2.78118e+07 2.80887e+07 2.78887e+07 2.7766e+07 2.77184e+07 2.78176e+07 2.79922e+07 2.86627e+07 2.95738e+07 2.56348e+07 2.57942e+07 2.59105e+07
          2.6299e+07 2.76765e+07 2.77801e+07 2.82315e+07 2.86092e+07 2.86954e+07 2.85579e+07 2.84881e+07 2.85521e+07 2.89556e+07 2.95603e+07 3.02345e+07
          2.66837e+07 2.67174e+07 2.66048e+07 2.70096e+07 2.81425e+07 2.82445e+07 2.87295e+07 2.91594e+07 2.92553e+07 2.92918e+07 2.93086e+07 2.95037e+07
          2.99431e+07 3.06677e+07 3.0818e+07 2.75073e+07 2.75393e+07 2.73115e+07 2.82106e+07 2.89067e+07 2.89834e+07 2.93831e+07 2.97027e+07 2.97696e+07
          2.9855e+07 2.99408e+07 3.03627e+07 3.0915e+07 3.13493e+07 3.11989e+07 2.81769e+07 2.81787e+07 2.81939e+07 2.92209e+07 2.96107e+07 2.96679e+07
          2.99362e+07 3.01294e+07 3.01788e+07 3.02549e+07 3.04003e+07 3.10535e+07 3.15644e+07 3.17314e+07 3.16459e+07 2.87808e+07 2.88093e+07 2.89164e+07
          2.98404e+07 3.00452e+07 3.00982e+07 3.02887e+07 3.04158e+07 3.04633e+07 3.05325e+07 3.07928e+07 3.14208e+07 3.18901e+07 3.21666e+07 3.20693e+07
          2.94026e+07 2.94545e+07 2.98245e+07 3.02976e+07 3.04055e+07 3.04449e+07 3.05479e+07 3.06381e+07 3.06847e+07 3.07451e+07 3.10843e+07 3.18285e+07
          3.2332e+07 3.26012e+07 3.24596e+07 2.9909e+07 2.9968e+07 3.03011e+07 3.0555e+07 3.06677e+07 3.07122e+07 3.07934e+07 3.08614e+07 3.09098e+07
          3.09656e+07 3.138e+07 3.21647e+07 3.26785e+07 3.29021e+07 3.28489e+07 3.02022e+07 3.02668e+07 3.04662e+07 3.07509e+07 3.08997e+07 3.0947e+07
          3.10189e+07 3.10794e+07 3.11243e+07 3.11783e+07 3.16327e+07 3.24981e+07 3.30237e+07 3.31954e+07 3.3376e+07 3.04408e+07 3.04987e+07 3.0678e+07
          3.09604e+07 3.11069e+07 3.11547e+07 3.12246e+07 3.12821e+07 3.13273e+07 3.13866e+07 3.18365e+07 3.27885e+07 3.33646e+07 3.35031e+07 3.38791e+07
          3.06447e+07 3.07093e+07 3.08533e+07 3.11148e+07 3.12949e+07 3.13468e+07 3.14217e+07 3.14822e+07 3.15409e+07 3.16141e+07 3.22466e+07 3.32636e+07
          3.36831e+07 3.38284e+07 3.42787e+07 3.08408e+07 3.09076e+07 3.10367e+07 3.12919e+07 3.14752e+07 3.15316e+07 3.16175e+07 3.16863e+07 3.17609e+07
          3.18444e+07 3.26947e+07 3.37501e+07 3.40121e+07 3.41851e+07 3.46688e+07 3.10214e+07 3.10831e+07 3.12367e+07 3.15048e+07 3.16555e+07 3.17193e+07
          3.18196e+07 3.1899e+07 3.19935e+07 3.2096e+07 3.30791e+07 3.41568e+07 3.43823e+07 3.45741e+07 3.49577e+07 3.11884e+07 3.12474e+07 3.13831e+07
          3.16515e+07 3.18424e+07 3.19077e+07 3.20201e+07 3.21119e+07 3.22261e+07 3.23617e+07 3.35005e+07 3.45145e+07 3.47637e+07 3.49388e+07 3.52168e+07
        </DataArray>
        <DataArray type="Float32" Name="pressure[2]" NumberOfComponents="1" format="ascii">
          2.11703e+07 2.1185e+07 2.22136e+07 2.31021e+07 2.34617e+07 2.38778e+07 2.40128e+07 2.40619e+07 2.41212e+07 2.41839e+07 2.43525e+07 2.46363e+07
          2.48542e+07 2.54533e+07 2.61626e+07 2.12148e+07 2.12295e+07 2.23686e+07 2.33081e+07 2.36624e+07 2.40747e+07 2.41716e+07 2.42092e+07 2.42691e+07
          2.43393e+07 2.45786e+07 2.48716e+07 2.50415e+07 2.56493e+07 2.63274e+07 2.12597e+07 2.12742e+07 2.24333e+07 2.34778e+07 2.37975e+07 2.41794e+07
          2.42978e+07 2.43537e+07 2.44312e+07 2.45293e+07 2.48571e+07 2.51925e+07 2.53532e+07 2.59019e+07 2.65336e+07 2.13054e+07 2.13255e+07 2.22611e+07
          2.36249e+07 2.39329e+07 2.43093e+07 2.44901e+07 2.45694e+07 2.46754e+07 2.48105e+07 2.5223e+07 2.55978e+07 2.5749e+07 2.6195e+07 2.6787e+07
          2.13795e+07 2.1409e+07 1.97743e+07 2.37515e+07 2.43356e+07 2.4928e+07 2.50111e+07 2.50526e+07 2.5124e+07 2.53905e+07 2.56929e+07 2.60254e+07
          2.61457e+07 2.65183e+07 2.70346e+07 2.15642e+07 2.16078e+07 2.18624e+07 2.44835e+07 2.49919e+07 2.54541e+07 2.55252e+07 2.56108e+07 2.59145e+07
          2.67201e+07 2.6631e+07 2.64226e+07 2.65135e+07 2.68435e+07 2.73092e+07 2.17921e+07 2.18412e+07 2.25785e+07 2.51959e+07 2.56187e+07 2.59714e+07
          2.60288e+07 2.60957e+07 2.61578e+07 2.64458e+07 2.66275e+07 2.66762e+07 2.67825e+07 2.71845e+07 2.76833e+07 2.21127e+07 2.21661e+07 2.30829e+07
          2.56613e+07 2.61385e+07 2.64022e+07 2.64542e+07 2.65009e+07 2.65585e+07 2.67103e+07 2.68357e+07 2.68942e+07 2.70668e+07 2.75317e+07 2.81921e+07
          2.25511e+07 2.26079e+07 2.35305e+07 2.59195e+07 2.66164e+07 2.68354e+07 2.69189e+07 2.69986e+07 2.69701e+07 2.70186e+07 2.70718e+07 2.71038e+07
          2.72962e+07 2.7917e+07 2.86979e+07 2.31e+07 2.31899e+07 2.40389e+07 2.51989e+07 2.69957e+07 2.72115e+07 2.7405e+07 2.7586e+07 2.74182e+07
          2.73601e+07 2.73583e+07 2.73724e+07 2.76146e+07 2.83106e+07 2.90071e+07 2.39925e+07 2.44932e+07 2.49448e+07 2.56092e+07 2.73305e+07 2.74975e+07
          2.78118e+07 2.80887e+07 2.78887e+07 2.7766e+07 2.77184e+07 2.78176e+07 2.79922e+07 2.86627e+07 2.95738e+07 2.56348e+07 2.57942e+07 2.59105e+07
          2.6299e+07 2.76765e+07 2.77801e+07 2.82315e+07 2.86092e+07 2.86954e+07 2.85579e+07 2.84881e+07 2.85521e+07 2.89556e+07 2.95603e+07 3.02345e+07
          2.66837e+07 2.67174e+07 2.66048e+07 2.70096e+07 2.81425e+07 2.82445e+07 2.87295e+07 2.91594e+07 2.92553e+07 2.92918e+07 2.93086e+07 2.95037e+07
          2.99431e+07 3.06677e+07 3.0818e+07 2.75073e+07 2.75393e+07 2.73115e+07 2.82106e+07 2.89067e+07 2.89834e+07 2.93831e+07 2.97027e+07 2.97696e+07
          2.9855e+07 2.99408e+07 3.03627e+07 3.0915e+07 3.13493e+07 3.11989e+07 2.81769e+07 2.81787e+07 2.81939e+07 2.92209e+07 2.96107e+07 2.96679e+07
          2.99362e+07 3.01294e+07 3.01788e+07 3.02549e+07 3.04003e+07 3.10535e+07 3.15644e+07 3.17314e+07 3.16459e+07 2.87808e+07 2.88093e+07 2.89164e+07
          2.98404e+07 3.00452e+07 3.00982e+07 3.02887e+07 3.04158e+07 3.04633e+07 3.05325e+07 3.07928e+07 3.14208e+07 3.18901e+07 3.21666e+07 3.20693e+07
          2.94026e+07 2.94545e+07 2.98245e+07 3.02976e+07 3.04055e+07 3.04449e+07 3.05479e+07 3.06381e+07 3.06847e+07 3.07451e+07 3.10843e+07 3.18285e+07
          3.2332e+07 3.26012e+07 3.24596e+07 2.9909e+07 2.9968e+07 3.03011e+07 3.0555e+07 3.06677e+07 3.07122e+07 3.07934e+07 3.08614e+07 3.09098e+07
          3.09656e+07 3.138e+07 3.21647e+07 3.26785e+07 3.29021e+07 3.28489e+07 3.02022e+07 3.02668e+07 3.04662e+07 3.07509e+07 3.08997e+07 3.0947e+07
          3.10189e+07 3.10794e+07 3.11243e+07 3.11783e+07 3.16327e+07 3.24981e+07 3.30237e+07 3.31954e+07 3.3376e+07 3.04408e+07 3.04987e+07 3.0678e+07
          3.09604e+07 3.11069e+07 3.11547e+07 3.12246e+07 3.12821e+07 3.13273e+07 3.13866e+07 3.18365e+07 3.27885e+07 3.33646e+07 3.35031e+07 3.38791e+07
          3.06447e+07 3.07093e+07 3.08533e+07 3.11148e+07 3.12949e+07 3.13468e+07 3.14217e+07 3.14822e+07 3.15409e+07 3.16141e+07 3.22466e+07 3.32636e+07
          3.36831e+07 3.38284e+07 3.42787e+07 3.08408e+07 3.09076e+07 3.10367e+07 3.12919e+07 3.14752e+07 3.15316e+07 3.16175e+07 3.16863e+07 3.17609e+07
          3.18444e+07 3.26947e+07 3.37501e+07 3.40121e+07 3.41851e+07 3.46688e+07 3.10214e+07 3.10831e+07 3.12367e+07 3.15048e+07 3.16555e+07 3.17193e+07
          3.18196e+07 3.1899e+07 3.19935e+07 3.2096e+07 3.30791e+07 3.41568e+07 3.43823e+07 3.45741e+07 3.49577e+07 3.11884e+07 3.12474e+07 3.13831e+07
          3.16515e+07 3.18424e+07 3.19077e+07 3.20201e+07 3.21119e+07 3.22261e+07 3.23617e+07 3.35005e+07 3.45145e+07 3.47637e+07 3.49388e+07 3.52168e+07
        </DataArray>
        <DataArray type="Float32" Name="velocity[0]" NumberOfComponents="1" format="ascii">
          -1.78793e-09 6.45598e-08 -1.58683e-10 -2.15299e-08 -7.37336e-10 -2.54119e-09 -3.588e-09 -9.88992e-10 -2.07781e-09 -2.85755e-09 -2.25692e-09 -3.32145e-09
          -2.46582e-09 -6.0279e-10 -2.47172e-09 -1.02634e-08 1.91007e-07 3.21373e-10 -7.45356e-08 -6.59065e-10 -4.09558e-10 -2.47319e-10 -1.43352e-09 -6.99025e-09
          -8.81225e-09 -4.87497e-09 -1.35581e-08 -8.56062e-09 -1.89441e-09 -6.55703e-09 -3.47624e-08 2.96185e-07 1.72385e-09 -8.35519e-08 2.19862e-10 3.05934e-09
          -5.95032e-10 -5.57538e-09 -1.54471e-08 -1.52382e-08 -6.18241e-09 -3.27252e-08 -1.13345e-08 -3.91644e-09 -9.76665e-09 -3.48399e-08 3.29724e-07 1.01979e-08
          -1.86971e-08 -1.91043e-09 -1.386e-08 -2.88695e-08 -2.65116e-08 -2.44156e-08 -2.61798e-08 -8.19826e-09 -6.06002e-08 -7.81781e-09 -5.46927e-09 -1.31464e-08
          -7.03788e-08 7.07437e-08 3.57614e-09 -5.99203e-08 -8.35285e-09 -4.57251e-08 -6.37748e-08 -6.32197e-08 -2.80183e-08 -3.41129e-08 -1.75182e-08 -1.12954e-07
          -4.0533e-09 -4.90317e-09 -1.59932e-08 -1.31416e-07 -1.63297e-07 -6.79182e-09 -9.99912e-08 -1.45337e-08 -9.69391e-08 -6.73274e-08 -9.3049e-08 -1.5597e-08
          -1.47054e-08 -8.86236e-09 -1.26229e-07 -2.22873e-09 -3.81202e-09 -1.78151e-08 -1.36251e-07 -1.47047e-07 -2.49902e-09 -3.2817e-08 -1.34712e-08 -1.56368e-07
          -4.73607e-08 -1.39194e-07 -4.32373e-09 1.93995e-09 2.0943e-10 -1.02509e-07 -1.54616e-09 -3.60059e-09 -1.90391e-08 -1.24232e-07 -1.34716e-07 -2.37492e-09
          -5.08213e-09 -8.44364e-09 -1.87016e-07 -2.68262e-08 -2.12741e-07 -4.80258e-09 -1.34715e-09 -9.77951e-09 -1.02732e-07 -1.16797e-09 -3.60613e-09 -2.04515e-08
          -1.12275e-07 -1.20753e-07 -3.56741e-09 1.00987e-09 -5.35611e-09 -1.95994e-07 -1.07833e-08 -2.77492e-07 -3.49915e-09 -1.7779e-09 -1.93502e-08 -9.40388e-08
          -1.09035e-09 -3.23495e-09 -2.23532e-08 -9.48859e-08 -9.4163e-08 -1.56274e-08 6.19368e-10 -4.05892e-09 -1.97856e-07 -3.64141e-09 -3.39313e-07 -3.61583e-09
          -2.70346e-09 -4.18263e-08 -6.34863e-08 -2.26713e-09 -2.89212e-09 -2.42486e-08 -5.95734e-08 -6.5137e-08 -3.83705e-08 -2.04347e-09 -4.51959e-09 -1.99694e-07
          -1.24707e-09 -4.01169e-07 -4.72892e-09 -3.54236e-09 -4.73253e-08 -4.25519e-08 -4.57581e-09 -4.28531e-09 -2.54721e-08 -3.35021e-08 -5.57438e-08 -5.02536e-08
          -2.0836e-09 -7.10804e-09 -2.04068e-07 -1.03907e-09 -4.34574e-07 -1.2819e-08 -3.99987e-09 -3.3597e-08 -3.5114e-08 -1.06356e-08 -6.5856e-09 -2.60699e-08
          -2.93693e-08 -5.73616e-08 -4.09659e-08 -1.98216e-09 -1.17078e-08 -1.93388e-07 -1.4674e-09 -4.33462e-07 -3.79569e-08 -5.15832e-09 -2.32995e-08 -1.74626e-08
          -2.16909e-08 -1.08293e-08 -2.62336e-08 -3.22603e-08 -6.66862e-08 -2.4879e-08 -2.31184e-09 -1.67782e-08 -1.77182e-07 -1.47949e-09 -4.02231e-07 -6.71169e-08
          -1.00085e-08 -1.3778e-08 -5.28638e-09 -2.63318e-08 -2.04436e-08 -2.48669e-08 -4.02703e-08 -6.36763e-08 -1.36282e-08 -2.31003e-09 -2.19423e-08 -1.72608e-07
          -1.03358e-09 -3.60012e-07 -8.08497e-08 -1.74432e-08 -1.00776e-08 -2.85614e-09 -2.46215e-08 -3.24143e-08 -2.20391e-08 -4.96019e-08 -5.09853e-08 -6.25946e-09
          -2.74542e-09 -2.74034e-08 -1.69216e-07 -1.25512e-09 -3.04092e-07 -8.41114e-08 -2.53278e-08 -6.46591e-09 -3.94858e-09 -2.79909e-08 -4.8016e-08 -1.84829e-08
          -5.26403e-08 -4.02051e-08 -2.98958e-09 -3.6261e-09 -3.86768e-08 -1.47438e-07 -2.42943e-09 -2.40332e-07 -8.45046e-08 -3.96961e-08 -2.80286e-09 -3.92718e-09
          -2.29718e-08 -7.14941e-08 -1.46493e-08 -5.13124e-08 -3.18789e-08 -1.29298e-09 -2.41586e-09 -5.68911e-08 -1.05664e-07 -3.73769e-09 -1.84013e-07 -9.12456e-08
          -5.9891e-08 -2.00934e-09 -2.66185e-09 -1.49482e-08 -9.36065e-08 -1.1424e-08 -4.60097e-08 -2.26081e-08 -9.29788e-10 -9.88573e-10 -7.04606e-08 -6.69853e-08
          -3.93206e-09 -1.31617e-07 -9.13489e-08 -9.43527e-08 -1.16733e-09 -2.19724e-09 -1.95989e-08 -1.07133e-07 -1.00015e-08 -3.80508e-08 -1.51964e-08 -1.14882e-09
          -4.72224e-10 -7.51691e-08 -3.81253e-08 -3.28505e-09 -9.63564e-08 -5.91745e-08 -1.64018e-07 -2.05544e-09 -3.13781e-09 -2.91432e-08 -1.13743e-07 -1.0771e-08
          -2.9035e-08 -1.02392e-08 -1.07168e-09 -1.10769e-10 -6.99737e-08 -1.99761e-08 -2.82189e-09 -7.58404e-08 -2.48e-08 -2.27923e-07 -3.23255e-09 -5.78906e-09
          -3.54277e-08 -1.18988e-07 -1.23856e-08 -1.82445e-08 -5.21507e-09 -1.72289e-09 -6.5641e-10 -5.18075e-08 -1.36295e-08 -2.76808e-09 -7.18183e-08 -1.348e-08
          -2.4115e-07 -2.94644e-09 -1.11051e-08 -3.87962e-08 -1.24314e-07 -1.53811e-08 -8.50898e-09 -2.08168e-09 -7.76132e-10 -4.32995e-10 -2.59291e-08 -1.02104e-08
          -2.27878e-09 -7.60412e-08 -1.08822e-08 -2.07879e-07 -4.087e-09 -1.91382e-08 -5.09882e-08 -1.29635e-07 -2.00968e-08 -2.2531e-09 -4.68436e-10 1.74662e-10
          6.77304e-11 -6.1443e-09 -3.90424e-09 -8.35677e-10 -3.88115e-08 -5.07231e-09 -8.9898e-08 -2.6969e-09 -1.16108e-08 -3.04767e-08 -6.66561e-08 -1.12873e-08
        </DataArray>
        <DataArray type="Float32" Name="velocity[1]" NumberOfComponents="1" format="ascii">
          2.77865e-25 1.04916e-23 6.30702e-26 -3.346e-24 1.14591e-25 0 5.57618e-25 1.29669e-25 -6.75465e-26 5.49957e-24 -3.43003e-24 -2.72695e-26
          2.1636e-24 -9.30428e-25 3.84553e-25 1.03932e-24 9.25026e-24 5.72627e-26 -4.89171e-24 -9.83647e-26 8.87196e-24 1.28038e-24 1.71596e-25 -8.70297e-24
          5.74289e-27 0 2.36817e-27 -4.47597e-26 -8.85364e-27 2.5077e-25 2.76812e-24 -1.3616e-23 -3.48192e-24 3.49047e-24 5.34972e-26 0
          1.19642e-24 7.41364e-25 -8.73765e-25 0 6.33334e-24 -1.06655e-23 0 9.83764e-25 -2.4384e-25 -5.65904e-24 2.41264e-23 -2.35519e-24
          2.4678e-24 8.09438e-25 1.07575e-23 -1.90666e-23 2.48553e-23 -1.66773e-24 -2.29071e-24 3.32677e-24 -3.86166e-24 2.47442e-24 -1.1023e-24 8.29989e-25
          -1.10483e-25 -7.74661e-23 3.58284e-24 4.27779e-24 4.93903e-26 -2.37634e-24 -3.58493e-25 3.72652e-25 5.28316e-24 -5.47734e-24 5.55432e-24 -9.09491e-24
          5.16419e-26 1.30474e-25 -1.32538e-24 -1.75518e-25 4.72073e-24 -2.61511e-25 3.98171e-24 -8.07354e-26 -3.01089e-24 0 -4.1437e-24 1.4646e-24
          -9.85446e-24 -1.74791e-23 1.51009e-23 -1.09324e-24 5.65348e-25 1.32901e-24 -7.35036e-25 -2.26859e-25 0 3.60516e-24 -5.25691e-25 -1.15187e-23
          1.55078e-24 -1.8566e-24 1.98623e-25 9.26279e-27 3.31052e-25 2.4668e-25 -1.32189e-25 1.64167e-26 -1.4433e-24 -4.93859e-25 1.0119e-23 1.08584e-24
          1.3343e-24 -1.94521e-26 1.27629e-23 3.22615e-25 -5.927e-26 4.95181e-25 1.04714e-25 -1.21389e-24 -7.48742e-24 1.09555e-25 -2.45904e-25 1.66281e-24
          -2.12817e-25 -7.1808e-24 -1.72577e-25 -1.61844e-24 -1.6518e-25 1.92001e-24 0 0 3.36131e-25 -1.1264e-25 1.81368e-25 2.85396e-24
          1.87643e-25 6.67124e-26 1.1298e-27 -8.50164e-24 4.82699e-24 1.46329e-24 -3.57811e-25 -2.0622e-24 2.48624e-24 -4.69539e-24 5.25286e-24 -3.24621e-25
          -2.08681e-26 2.85268e-25 4.00108e-24 -6.83043e-25 0 -1.81114e-24 -2.03321e-25 -2.1944e-25 1.81383e-24 -1.41584e-25 2.06596e-24 -6.03288e-27
          -3.12967e-24 8.7093e-24 4.12527e-26 -3.92718e-26 -5.83302e-25 2.16156e-24 1.05926e-24 -8.68499e-26 4.34249e-26 -2.19294e-24 1.28001e-24 -4.29813e-26
          8.07854e-26 -1.31152e-24 -1.59921e-23 2.56396e-26 8.3593e-25 -2.1566e-24 -2.64832e-26 5.18785e-25 1.39696e-24 -5.24976e-25 6.74834e-25 -4.86392e-26
          2.3709e-24 4.00584e-24 0 -2.28521e-26 4.24216e-25 1.9224e-24 4.49554e-26 -1.00864e-24 -2.74556e-24 6.59023e-27 -1.34906e-24 -5.97198e-25
          1.0099e-24 -5.76204e-25 -3.54065e-28 2.70854e-25 -2.60029e-27 5.07832e-25 -5.74037e-26 2.74405e-27 1.35674e-23 -3.68046e-26 -3.84818e-24 5.11563e-24
          -1.19541e-24 1.33417e-24 1.68699e-24 -3.37479e-24 4.76794e-28 -1.83775e-24 -2.6344e-24 -4.45248e-24 2.56036e-27 1.93835e-25 4.3642e-25 -7.99352e-28
          -3.02504e-26 -6.65828e-24 1.75095e-24 0 0 2.24368e-25 2.90165e-24 -3.91848e-25 3.42541e-24 0 9.69703e-25 0
          -2.615e-25 4.13625e-25 -4.91853e-28 6.46803e-26 -5.97241e-24 9.25453e-28 4.66266e-28 4.82402e-28 3.1378e-24 4.75429e-30 -9.26754e-25 -1.58701e-24
          -1.87999e-29 7.05932e-25 4.07257e-28 -4.12569e-26 1.34024e-24 -7.64234e-24 0 -7.89359e-24 0 5.91513e-30 2.31796e-24 -2.86515e-24
          -1.28552e-24 1.33658e-28 9.9146e-25 0 2.77135e-24 0 3.02241e-25 1.30666e-24 3.72681e-24 8.45879e-26 -4.81665e-24 -4.13959e-24
          -1.5986e-24 1.34904e-25 3.77366e-26 8.95211e-29 -1.31764e-24 -7.8397e-25 3.26434e-24 -1.6838e-24 1.82274e-24 -1.47841e-24 6.18279e-25 6.45159e-24
          -5.44159e-26 -3.32633e-24 7.66247e-24 4.11506e-24 -2.47666e-24 5.33507e-26 6.84047e-25 -2.7062e-28 7.70374e-25 2.18478e-28 -2.97131e-24 6.45305e-25
          -1.34815e-24 2.27427e-25 -1.99382e-24 -9.13679e-26 -4.30582e-24 -3.87494e-24 7.07189e-24 2.01523e-25 2.64625e-24 7.99215e-25 -2.66665e-25 -6.37174e-25
          -7.8603e-25 4.71765e-25 0 -3.06089e-26 -9.21323e-25 3.34275e-24 -5.87574e-24 5.87758e-24 -4.26451e-24 1.13931e-27 0 0
          1.77581e-25 -4.66385e-28 1.0213e-24 -8.90942e-25 -9.38031e-25 8.63978e-25 -1.45048e-24 -5.92374e-25 -9.79503e-25 1.68153e-26 4.10394e-25 -2.78921e-24
          1.00392e-23 -1.89983e-25 -4.81185e-24 3.45768e-25 6.96318e-25 -1.27135e-29 -6.21807e-25 -2.27579e-28 -2.99964e-28 8.72522e-26 -2.12038e-24 3.73786e-25
          -9.44004e-26 7.61599e-24 -3.16101e-24 0 -2.03093e-25 -6.34399e-25 4.90436e-24 -5.72029e-25 0 -3.50407e-25 -2.71839e-28 -2.85143e-25
          4.83214e-25 -9.54403e-25 -1.61069e-24 -2.61095e-25 -2.02091e-24 7.88296e-25 -2.18389e-23 0 2.18274e-23 -1.59847e-23 1.31882e-23 3.31872e-25
        </DataArray>
        <DataArray type="Float32" Name="velocity[2]" NumberOfComponents="1" format="ascii">
          -2.30494e-10 8.47303e-09 -5.97064e-09 -8.60399e-09 -3.81975e-09 -4.00364e-09 -4.00084e-09 -3.43547e-09 -3.50662e-09 -3.43571e-09 -3.09024e-09 -2.95945e-09
          -2.48795e-09 -1.88995e-09 -1.25886e-09 -1.38637e-09 3.15516e-08 -5.07202e-09 -1.67606e-08 -2.25231e-09 -2.49891e-09 -2.90407e-09 -3.3279e-09 -4.18406e-09
          -4.24026e-09 -3.41444e-09 -4.52316e-09 -3.00522e-09 -1.5017e-09 -1.6874e-09 -4.9586e-09 5.24276e-08 -1.69773e-09 -1.80348e-08 -4.51737e-09 -3.98684e-09
          -4.40436e-09 -4.97705e-09 -6.30561e-09 -5.78748e-09 -3.94783e-09 -7.8805e-09 -3.45467e-09 -1.96752e-09 -2.24969e-09 -7.38756e-09 5.61439e-08 -3.29765e-10
          -7.96603e-09 -6.83024e-09 -8.11024e-09 -9.46207e-09 -8.06647e-09 -6.91766e-09 -6.88194e-09 -3.62467e-09 -1.21747e-08 -2.44528e-09 -2.18076e-09 -2.90877e-09
          -8.81122e-09 1.73074e-08 1.10052e-09 -1.34703e-08 -5.53538e-09 -1.11736e-08 -1.33134e-08 -1.24246e-08 -6.74794e-09 -8.52935e-09 -5.61605e-09 -2.14554e-08
          -1.04082e-09 -1.42628e-09 -3.17094e-09 -2.25801e-08 -2.83473e-08 -1.8325e-09 -2.08006e-08 -7.84632e-09 -2.10316e-08 -1.56784e-08 -2.03916e-08 -6.43637e-09
          -4.40586e-09 1.38538e-10 -2.09859e-08 -6.3856e-10 -1.09985e-09 -3.39042e-09 -2.43408e-08 -2.67391e-08 -1.45799e-09 -8.02451e-09 -5.98566e-09 -3.03974e-08
          -1.07319e-08 -2.61485e-08 -1.38365e-09 -4.70057e-10 -2.88253e-10 -1.81508e-08 -5.15662e-10 -9.36573e-10 -3.50903e-09 -2.23003e-08 -2.47795e-08 -1.6548e-09
          -2.33107e-09 -3.24942e-09 -3.46377e-08 -6.53582e-09 -3.86746e-08 -1.11302e-09 -6.26253e-10 -2.09472e-09 -1.84834e-08 -6.92651e-10 -1.22917e-09 -3.91882e-09
          -2.00851e-08 -2.22211e-08 -1.81526e-09 -1.01262e-09 -2.2922e-09 -3.58308e-08 -3.19092e-09 -4.96056e-08 -5.94929e-10 -3.51818e-10 -3.06834e-09 -1.64455e-08
          -6.87376e-10 -1.14241e-09 -4.25658e-09 -1.76613e-08 -1.93005e-08 -5.33829e-09 -1.40051e-09 -2.11713e-09 -3.63466e-08 -2.19808e-09 -6.05422e-08 -4.31055e-10
          -2.49577e-10 -6.23936e-09 -1.04936e-08 -1.01136e-09 -1.11491e-09 -4.58777e-09 -1.18888e-08 -1.45808e-08 -9.16368e-09 -1.72092e-09 -2.10851e-09 -3.63652e-08
          -1.26061e-09 -7.10441e-08 -3.64756e-10 -1.39115e-10 -8.50921e-09 -8.30755e-09 -1.53647e-09 -1.17605e-09 -4.58472e-09 -6.25939e-09 -1.07391e-08 -9.95574e-09
          -1.45359e-09 -2.25305e-09 -3.68054e-08 -9.22435e-10 -7.72221e-08 -2.2642e-09 -2.57245e-10 -5.74935e-09 -6.78361e-09 -2.65642e-09 -1.50726e-09 -4.70132e-09
          -5.10202e-09 -9.66527e-09 -7.30203e-09 -1.24501e-09 -2.80928e-09 -3.52798e-08 -2.00959e-09 -7.83514e-08 -7.72525e-09 -8.51395e-10 -4.41268e-09 -4.36953e-09
          -5.27784e-09 -2.36886e-09 -4.57185e-09 -5.57103e-09 -1.13526e-08 -4.38206e-09 -9.65813e-10 -3.38212e-09 -3.17153e-08 -9.24991e-10 -7.22449e-08 -1.31357e-08
          -2.21884e-09 -2.93976e-09 -1.80365e-09 -5.78136e-09 -3.83009e-09 -3.9795e-09 -6.67982e-09 -1.07103e-08 -2.61522e-09 -1.03446e-09 -4.35621e-09 -3.08094e-08
          -5.95828e-10 -6.43676e-08 -1.54747e-08 -4.02361e-09 -2.60815e-09 -1.35687e-09 -5.18941e-09 -5.59732e-09 -3.34802e-09 -8.54149e-09 -8.89273e-09 -1.55318e-09
          -1.13762e-09 -5.31362e-09 -3.0302e-08 -7.97489e-10 -5.52118e-08 -1.73859e-08 -6.7811e-09 -3.48623e-09 -3.18444e-09 -7.13812e-09 -8.81062e-09 -2.61087e-09
          -9.28397e-09 -7.3201e-09 -1.03404e-09 -1.18264e-09 -6.89084e-09 -2.65028e-08 -1.80612e-09 -4.44119e-08 -1.76479e-08 -9.39145e-09 -2.51501e-09 -2.80497e-09
          -6.78355e-09 -1.36185e-08 -1.95264e-09 -9.13497e-09 -5.98443e-09 -8.78781e-10 -1.24888e-09 -1.04133e-08 -1.95554e-08 -2.63143e-09 -3.52199e-08 -1.92531e-08
          -1.28712e-08 -2.28077e-09 -2.43066e-09 -4.58785e-09 -1.70283e-08 -1.56908e-09 -8.37835e-09 -4.79381e-09 -1.18055e-09 -1.12241e-09 -1.31587e-08 -1.30828e-08
          -2.72277e-09 -2.58184e-08 -1.97247e-08 -1.9723e-08 -2.35007e-09 -2.57836e-09 -5.37415e-09 -1.9674e-08 -1.73415e-09 -6.97233e-09 -3.3032e-09 -9.7012e-10
          -9.26935e-10 -1.40878e-08 -8.11528e-09 -2.57817e-09 -1.93671e-08 -1.46755e-08 -3.28383e-08 -2.37683e-09 -2.40854e-09 -6.57427e-09 -2.08886e-08 -2.18488e-09
          -5.45714e-09 -2.63196e-09 -1.12649e-09 -9.06422e-10 -1.35321e-08 -5.28107e-09 -2.50982e-09 -1.55679e-08 -7.31343e-09 -4.29619e-08 -2.6122e-09 -2.98869e-09
          -8.05686e-09 -2.21008e-08 -2.43643e-09 -3.59942e-09 -1.78369e-09 -1.25209e-09 -1.03163e-09 -1.06871e-08 -4.65547e-09 -2.78487e-09 -1.48873e-08 -4.64187e-09
          -4.51066e-08 -3.32106e-09 -4.53333e-09 -9.0307e-09 -2.36873e-08 -3.45821e-09 -1.76738e-09 -9.5832e-10 -8.83129e-10 -9.48928e-10 -6.20099e-09 -4.26916e-09
          -2.99913e-09 -1.598e-08 -4.49286e-09 -4.03969e-08 -5.50141e-09 -7.82779e-09 -1.25344e-08 -2.51244e-08 -4.36975e-09 -5.4761e-10 -4.06737e-10 -3.01873e-10
          -3.02523e-10 -1.72255e-09 -1.83778e-09 -1.50146e-09 -9.25528e-09 -4.64594e-09 -2.35012e-08 -1.0071e-08 -8.81531e-09 -1.00403e-08 -1.39825e-08 -2.34623e-09
        </DataArray>
        <DataArray type="Float32" Name="z[0]" NumberOfComponents="1" format="ascii">
          0.150578 0.150579 0.15058 0.150582 0.150582 0.150583 0.150584 0.150585 0.150585 0.150586 0.150587 0.150588
          0.150589 0.150591 0.150596 0.150581 0.150582 0.150583 0.150585 0.150586 0.150587 0.150587 0.150588 0.150588
          0.150589 0.15059 0.150591 0.150593 0.150595 0.150599 0.150584 0.150585 0.150587 0.150588 0.150589 0.15059
          0.150778 0.153571 0.150592 0.150593 0.150593 0.150595 0.150596 0.150598 0.150602 0.150588 0.150589 0.15059
          0.150591 0.16634 0.274631 0.37981 0.37931 0.150595 0.150596 0.150597 0.150598 0.150599 0.150601 0.150605
          0.150591 0.150592 0.236501 0.436485 0.448741 0.453223 0.431654 0.399633 0.150598 0.150599 0.1506 0.150601
          0.150602 0.150604 0.150609 0.150594 0.150596 0.232027 0.467119 0.479646 0.480475 0.462873 0.436813 0.157197