<?xml version="1.0"?>
<VTKFile type="UnstructuredGrid" version="0.1" byte_order="LittleEndian">
  <UnstructuredGrid>
    <Piece NumberOfCells="360" NumberOfPoints="800">
      <CellData Scalars="pressure[0]">
        <DataArray type="Float32" Name="pressure[0]" NumberOfComponents="1" format="ascii">
          2.14519e+07 2.14651e+07 2.23196e+07 2.30924e+07 2.34506e+07 2.38186e+07 2.39334e+07 2.39766e+07 2.40312e+07 2.409e+07 2.42342e+07 2.44682e+07
          2.4643e+07 2.51629e+07 2.58146e+07 2.15466e+07 2.15927e+07 2.25005e+07 2.32607e+07 2.36299e+07 2.39955e+07 2.40795e+07 2.41138e+07 2.4169e+07
          2.4233e+07 2.44259e+07 2.46591e+07 2.48044e+07 2.53475e+07 2.59767e+07 2.16723e+07 2.17204e+07 2.2673e+07 2.34156e+07 2.37417e+07 2.40888e+07
          2.41899e+07 2.42372e+07 2.43054e+07 2.43862e+07 2.46368e+07 2.49015e+07 2.50582e+07 2.55704e+07 2.61754e+07 2.17979e+07 2.18453e+07 2.25011e+07
          2.35541e+07 2.38855e+07 2.42317e+07 2.43249e+07 2.43672e+07 2.44591e+07 2.45702e+07 2.48978e+07 2.52253e+07 2.53871e+07 2.58337e+07 2.6417e+07
          2.19256e+07 2.19431e+07 1.98458e+07 2.36563e+07 2.40963e+07 2.44669e+07 2.45282e+07 2.45602e+07 2.46867e+07 2.48746e+07 2.52336e+07 2.55347e+07
          2.57044e+07 2.61283e+07 2.66552e+07 2.21419e+07 2.21845e+07 2.30409e+07 2.41896e+07 2.44909e+07 2.4737e+07 2.4779e+07 2.48118e+07 2.49703e+07
          2.52749e+07 2.56219e+07 2.58135e+07 2.59976e+07 2.64226e+07 2.69198e+07 2.24271e+07 2.24799e+07 2.37166e+07 2.46473e+07 2.48584e+07 2.50342e+07
          2.50766e+07 2.51119e+07 2.52616e+07 2.56495e+07 2.59697e+07 2.6061e+07 2.62379e+07 2.67387e+07 2.72796e+07 2.28406e+07 2.28987e+07 2.40675e+07
          2.4993e+07 2.5205e+07 2.53399e+07 2.53782e+07 2.54112e+07 2.55838e+07 2.59558e+07 2.62121e+07 2.62867e+07 2.65219e+07 2.7067e+07 2.77685e+07
          2.33995e+07 2.34663e+07 2.43748e+07 2.52769e+07 2.55404e+07 2.56483e+07 2.57065e+07 2.57637e+07 2.59593e+07 2.62905e+07 2.64623e+07 2.65057e+07
          2.67446e+07 2.7441e+07 2.82587e+07 2.3976e+07 2.40738e+07 2.45851e+07 2.53306e+07 2.58246e+07 2.59188e+07 2.60418e+07 2.61633e+07 2.63394e+07
          2.66156e+07 2.67574e+07 2.68006e+07 2.70599e+07 2.78243e+07 2.85602e+07 2.46771e+07 2.47909e+07 2.51014e+07 2.56419e+07 2.60614e+07 2.61329e+07
          2.63218e+07 2.65058e+07 2.66613e+07 2.69008e+07 2.70575e+07 2.71162e+07 2.73546e+07 2.81631e+07 2.87889e+07 2.54235e+07 2.54988e+07 2.56376e+07
          2.59907e+07 2.62924e+07 2.63412e+07 2.65983e+07 2.68453e+07 2.69633e+07 2.71733e+07 2.73545e+07 2.74493e+07 2.77323e+07 2.85348e+07 2.90327e+07
          2.59758e+07 2.60267e+07 2.60764e+07 2.63581e+07 2.65897e+07 2.66368e+07 2.69176e+07 2.7185e+07 2.72711e+07 2.74593e+07 2.76722e+07 2.79105e+07
          2.82616e+07 2.89416e+07 2.92803e+07 2.64074e+07 2.64566e+07 2.65091e+07 2.68046e+07 2.7008e+07 2.70533e+07 2.72775e+07 2.75252e+07 2.76055e+07
          2.77207e+07 2.78768e+07 2.83184e+07 2.88734e+07 2.94167e+07 2.97003e+07 2.6757e+07 2.67928e+07 2.69578e+07 2.72656e+07 2.74043e+07 2.74447e+07
          2.75516e+07 2.7945e+07 2.79699e+07 2.80273e+07 2.81423e+07 2.85999e+07 2.99795e+07 3.01658e+07 3.02417e+07 2.70729e+07 2.71165e+07 2.7354e+07
          2.76283e+07 2.76955e+07 2.77265e+07 2.78664e+07 2.8368e+07 2.84179e+07 2.85019e+07 2.88321e+07 2.97489e+07 3.04937e+07 3.09055e+07 3.07869e+07
          2.73955e+07 2.74492e+07 2.77193e+07 2.80425e+07 2.82376e+07 2.83184e+07 2.8477e+07 2.86261e+07 2.86774e+07 2.8747e+07 2.92532e+07 3.04085e+07
          3.11955e+07 3.15878e+07 3.13051e+07 2.76945e+07 2.77456e+07 2.79695e+07 2.84293e+07 2.86123e+07 2.86603e+07 2.8783e+07 2.88889e+07 2.89437e+07
          2.90065e+07 2.96511e+07 3.08955e+07 3.17011e+07 3.20047e+07 3.18331e+07 2.80341e+07 2.80989e+07 2.83184e+07 2.87051e+07 2.89067e+07 2.89555e+07
          2.90572e+07 2.91455e+07 2.91946e+07 2.92545e+07 2.9972e+07 3.13605e+07 3.21895e+07 3.24028e+07 3.25992e+07 2.83052e+07 2.83645e+07 2.85846e+07
          2.89614e+07 2.91523e+07 2.92015e+07 2.92972e+07 2.93779e+07 2.94273e+07 2.94962e+07 3.02104e+07 3.175e+07 3.26659e+07 3.28241e+07 3.33317e+07
          2.85286e+07 2.85981e+07 2.87765e+07 2.91243e+07 2.93629e+07 2.9419e+07 2.95216e+07 2.96064e+07 2.96782e+07 2.97703e+07 3.07915e+07 3.24455e+07
          3.31034e+07 3.32743e+07 3.3899e+07 2.87413e+07 2.88143e+07 2.89731e+07 2.93149e+07 2.95592e+07 2.96228e+07 2.97436e+07 2.98419e+07 2.994e+07
          3.0049e+07 3.14384e+07 3.31632e+07 3.35598e+07 3.37776e+07 3.44524e+07 2.89318e+07 2.89975e+07 2.91931e+07 2.95564e+07 2.97553e+07 2.98312e+07
          2.99758e+07 3.00915e+07 3.0223e+07 3.03637e+07 3.19799e+07 3.37475e+07 3.40859e+07 3.43353e+07 3.4834e+07 2.91024e+07 2.91643e+07 2.93347e+07
          2.97013e+07 2.99619e+07 3.00401e+07 3.02046e+07 3.0341e+07 3.05056e+07 3.07021e+07 3.25833e+07 3.42473e+07 3.46267e+07 3.48491e+07 3.51648e+07
        </DataArray>
        <DataArray type="Float32" Name="pressure[1]" NumberOfComponents="1" format="ascii">
          2.14519e+07 2.14651e+07 2.23196e+07 2.30924e+07 2.34506e+07 2.38186e+07 2.39334e+07 2.39766e+07 2.40312e+07 2.409e+07 2.42342e+07 2.44682e+07
          2.4643e+07 2.51629e+07 2.58146e+07 2.15466e+07 2.15927e+07 2.25005e+07 2.32607e+07 2.36299e+07 2.39955e+07 2.40795e+07 2.41138e+07 2.4169e+07
          2.4233e+07 2.44259e+07 2.46591e+07 2.48044e+07 2.53475e+07 2.59767e+07 2.16723e+07 2.17204e+07 2.2673e+07 2.34156e+07 2.37417e+07 2.40888e+07
          2.41899e+07 2.42372e+07 2.43054e+07 2.43862e+07 2.46368e+07 2.49015e+07 2.50582e+07 2.55704e+07 2.61754e+07 2.17979e+07 2.18453e+07 2.25011e+07
          2.35541e+07 2.38855e+07 2.42317e+07 2.43249e+07 2.43672e+07 2.44591e+07 2.45702e+07 2.48978e+07 2.52253e+07 2.53871e+07 2.58337e+07 2.6417e+07
          2.19256e+07 2.19431e+07 1.98458e+07 2.36563e+07 2.40963e+07 2.44669e+07 2.45282e+07 2.45602e+07 2.46867e+07 2.48746e+07 2.52336e+07 2.55347e+07
          2.57044e+07 2.61283e+07 2.66552e+07 2.21419e+07 2.21845e+07 2.30409e+07 2.41896e+07 2.44909e+07 2.4737e+07 2.4779e+07 2.48118e+07 2.49703e+07
          2.52749e+07 2.56219e+07 2.58135e+07 2.59976e+07 2.64226e+07 2.69198e+07 2.24271e+07 2.24799e+07 2.37166e+07 2.46473e+07 2.48584e+07 2.50342e+07
          2.50766e+07 2.51119e+07 2.52616e+07 2.56495e+07 2.59697e+07 2.6061e+07 2.62379e+07 2.67387e+07 2.72796e+07 2.28406e+07 2.28987e+07 2.40675e+07
          2.4993e+07 2.5205e+07 2.53399e+07 2.53782e+07 2.54112e+07 2.55838e+07 2.59558e+07 2.62121e+07 2.62867e+07 2.65219e+07 2.7067e+07 2.77685e+07
          2.33995e+07 2.34663e+07 2.43748e+07 2.52769e+07 2.55404e+07 2.56483e+07 2.57065e+07 2.57637e+07 2.59593e+07 2.62905e+07 2.64623e+07 2.65057e+07
          2.67446e+07 2.7441e+07 2.82587e+07 2.3976e+07 2.40738e+07 2.45851e+07 2.53306e+07 2.58246e+07 2.59188e+07 2.60418e+07 2.61633e+07 2.63394e+07
          2.66156e+07 2.67574e+07 2.68006e+07 2.70599e+07 2.78243e+07 2.85602e+07 2.46771e+07 2.47909e+07 2.51014e+07 2.56419e+07 2.60614e+07 2.61329e+07
          2.63218e+07 2.65058e+07 2.66613e+07 2.69008e+07 2.70575e+07 2.71162e+07 2.73546e+07 2.81631e+07 2.87889e+07 2.54235e+07 2.54988e+07 2.56376e+07
          2.59907e+07 2.62924e+07 2.63412e+07 2.65983e+07 2.68453e+07 2.69633e+07 2.71733e+07 2.73545e+07 2.74493e+07 2.77323e+07 2.85348e+07 2.90327e+07
          2.59758e+07 2.60267e+07 2.60764e+07 2.63581e+07 2.65897e+07 2.66368e+07 2.69176e+07 2.7185e+07 2.72711e+07 2.74593e+07 2.76722e+07 2.79105e+07
          2.82616e+07 2.89416e+07 2.92803e+07 2.64074e+07 2.64566e+07 2.65091e+07 2.68046e+07 2.7008e+07 2.70533e+07 2.72775e+07 2.75252e+07 2.76055e+07
          2.77207e+07 2.78768e+07 2.83184e+07 2.88734e+07 2.94167e+07 2.97003e+07 2.6757e+07 2.67928e+07 2.69578e+07 2.72656e+07 2.74043e+07 2.74447e+07
          2.75516e+07 2.7945e+07 2.79699e+07 2.80273e+07 2.81423e+07 2.85999e+07 2.99795e+07 3.01658e+07 3.02417e+07 2.70729e+07 2.71165e+07 2.7354e+07
          2.76283e+07 2.76955e+07 2.77265e+07 2.78664e+07 2.8368e+07 2.84179e+07 2.85019e+07 2.88321e+07 2.97489e+07 3.04937e+07 3.09055e+07 3.07869e+07
          2.73955e+07 2.74492e+07 2.77193e+07 2.80425e+07 2.82376e+07 2.83184e+07 2.8477e+07 2.86261e+07 2.86774e+07 2.8747e+07 2.92532e+07 3.04085e+07
          3.11955e+07 3.15878e+07 3.13051e+07 2.76945e+07 2.77456e+07 2.79695e+07 2.84293e+07 2.86123e+07 2.86603e+07 2.8783e+07 2.88889e+07 2.89437e+07
          2.90065e+07 2.96511e+07 3.08955e+07 3.17011e+07 3.20047e+07 3.18331e+07 2.80341e+07 2.80989e+07 2.83184e+07 2.87051e+07 2.89067e+07 2.89555e+07
          2.90572e+07 2.91455e+07 2.91946e+07 2.92545e+07 2.9972e+07 3.13605e+07 3.21895e+07 3.24028e+07 3.25992e+07 2.83052e+07 2.83645e+07 2.85846e+07
          2.89614e+07 2.91523e+07 2.92015e+07 2.92972e+07 2.93779e+07 2.94273e+07 2.94962e+07 3.02104e+07 3.175e+07 3.26659e+07 3.28241e+07 3.33317e+07
          2.85286e+07 2.85981e+07 2.87765e+07 2.91243e+07 2.93629e+07 2.9419e+07 2.95216e+07 2.96064e+07 2.96782e+07 2.97703e+07 3.07915e+07 3.24455e+07
          3.31034e+07 3.32743e+07 3.3899e+07 2.87413e+07 2.88143e+07 2.89731e+07 2.93149e+07 2.95592e+07 2.96228e+07 2.97436e+07 2.98419e+07 2.994e+07
          3.0049e+07 3.14384e+07 3.31632e+07 3.35598e+07 3.37776e+07 3.44524e+07 2.89318e+07 2.89975e+07 2.91931e+07 2.95564e+07 2.97553e+07 2.98312e+07
          2.99758e+07 3.00915e+07 3.0223e+07 3.03637e+07 3.19799e+07 3.37475e+07 3.40859e+07 3.43353e+07 3.4834e+07 2.91024e+07 2.91643e+07 2.93347e+07
          2.97013e+07 2.99619e+07 3.00401e+07 3.02046e+07 3.0341e+07 3.05056e+07 3.07021e+07 3.25833e+07 3.42473e+07 3.46267e+07 3.48491e+07 3.51648e+07
        </DataArray>
        <DataArray type="Float32" Name="pressure[2]" NumberOfComponents="1" format="ascii">
          2.14519e+07 2.14651e+07 2.23196e+07 2.30924e+07 2.34506e+07 2.38186e+07 2.39334e+07 2.39766e+07 2.40312e+07 2.409e+07 2.42342e+07 2.44682e+07
          2.4643e+07 2.51629e+07 2.58146e+07 2.15466e+07 2.15927e+07 2.25005e+07 2.32607e+07 2.36299e+07 2.39955e+07 2.40795e+07 2.41138e+07 2.4169e+07
          2.4233e+07 2.44259e+07 2.46591e+07 2.48044e+07 2.53475e+07 2.59767e+07 2.16723e+07 2.17204e+07 2.2673e+07 2.34156e+07 2.37417e+07 2.40888e+07
          2.41899e+07 2.42372e+07 2.43054e+07 2.43862e+07 2.46368e+07 2.49015e+07 2.50582e+07 2.55704e+07 2.61754e+07 2.17979e+07 2.18453e+07 2.25011e+07
          2.35541e+07 2.38855e+07 2.42317e+07 2.43249e+07 2.43672e+07 2.44591e+07 2.45702e+07 2.48978e+07 2.52253e+07 2.53871e+07 2.58337e+07 2.6417e+07
          2.19256e+07 2.19431e+07 1.98458e+07 2.36563e+07 2.40963e+07 2.44669e+07 2.45282e+07 2.45602e+07 2.46867e+07 2.48746e+07 2.52336e+07 2.55347e+07
          2.57044e+07 2.61283e+07 2.66552e+07 2.21419e+07 2.21845e+07 2.30409e+07 2.41896e+07 2.44909e+07 2.4737e+07 2.4779e+07 2.48118e+07 2.49703e+07
          2.52749e+07 2.56219e+07 2.58135e+07 2.59976e+07 2.64226e+07 2.69198e+07 2.24271e+07 2.24799e+07 2.37166e+07 2.46473e+07 2.48584e+07 2.50342e+07
          2.50766e+07 2.51119e+07 2.52616e+07 2.56495e+07 2.59697e+07 2.6061e+07 2.62379e+07 2.67387e+07 2.72796e+07 2.28406e+07 2.28987e+07 2.40675e+07
          2.4993e+07 2.5205e+07 2.53399e+07 2.53782e+07 2.54112e+07 2.55838e+07 2.59558e+07 2.62121e+07 2.62867e+07 2.65219e+07 2.7067e+07 2.77685e+07
          2.33995e+07 2.34663e+07 2.43748e+07 2.52769e+07 2.55404e+07 2.56483e+07 2.57065e+07 2.57637e+07 2.59593e+07 2.62905e+07 2.64623e+07 2.65057e+07
          2.67446e+07 2.7441e+07 2.82587e+07 2.3976e+07 2.40738e+07 2.45851e+07 2.53306e+07 2.58246e+07 2.59188e+07 2.60418e+07 2.61633e+07 2.63394e+07
          2.66156e+07 2.67574e+07 2.68006e+07 2.70599e+07 2.78243e+07 2.85602e+07 2.46771e+07 2.47909e+07 2.51014e+07 2.56419e+07 2.60614e+07 2.61329e+07
          2.63218e+07 2.65058e+07 2.66613e+07 2.69008e+07 2.70575e+07 2.71162e+07 2.73546e+07 2.81631e+07 2.87889e+07 2.54235e+07 2.54988e+07 2.56376e+07
          2.59907e+07 2.62924e+07 2.63412e+07 2.65983e+07 2.68453e+07 2.69633e+07 2.71733e+07 2.73545e+07 2.74493e+07 2.77323e+07 2.85348e+07 2.90327e+07
          2.59758e+07 2.60267e+07 2.60764e+07 2.63581e+07 2.65897e+07 2.66368e+07 2.69176e+07 2.7185e+07 2.72711e+07 2.74593e+07 2.76722e+07 2.79105e+07
          2.82616e+07 2.89416e+07 2.92803e+07 2.64074e+07 2.64566e+07 2.65091e+07 2.68046e+07 2.7008e+07 2.70533e+07 2.72775e+07 2.75252e+07 2.76055e+07
          2.77207e+07 2.78768e+07 2.83184e+07 2.88734e+07 2.94167e+07 2.97003e+07 2.6757e+07 2.67928e+07 2.69578e+07 2.72656e+07 2.74043e+07 2.74447e+07
          2.75516e+07 2.7945e+07 2.79699e+07 2.80273e+07 2.81423e+07 2.85999e+07 2.99795e+07 3.01658e+07 3.02417e+07 2.70729e+07 2.71165e+07 2.7354e+07
          2.76283e+07 2.76955e+07 2.77265e+07 2.78664e+07 2.8368e+07 2.84179e+07 2.85019e+07 2.88321e+07 2.97489e+07 3.04937e+07 3.09055e+07 3.07869e+07
          2.73955e+07 2.74492e+07 2.77193e+07 2.80425e+07 2.82376e+07 2.83184e+07 2.8477e+07 2.86261e+07 2.86774e+07 2.8747e+07 2.92532e+07 3.04085e+07
          3.11955e+07 3.15878e+07 3.13051e+07 2.76945e+07 2.77456e+07 2.79695e+07 2.84293e+07 2.86123e+07 2.86603e+07 2.8783e+07 2.88889e+07 2.89437e+07
          2.90065e+07 2.96511e+07 3.08955e+07 3.17011e+07 3.20047e+07 3.18331e+07 2.80341e+07 2.80989e+07 2.83184e+07 2.87051e+07 2.89067e+07 2.89555e+07
          2.90572e+07 2.91455e+07 2.91946e+07 2.92545e+07 2.9972e+07 3.13605e+07 3.21895e+07 3.24028e+07 3.25992e+07 2.83052e+07 2.83645e+07 2.85846e+07
          2.89614e+07 2.91523e+07 2.92015e+07 2.92972e+07 2.93779e+07 2.94273e+07 2.94962e+07 3.02104e+07 3.175e+07 3.26659e+07 3.28241e+07 3.33317e+07
          2.85286e+07 2.85981e+07 2.87765e+07 2.91243e+07 2.93629e+07 2.9419e+07 2.95216e+07 2.96064e+07 2.96782e+07 2.97703e+07 3.07915e+07 3.24455e+07
          3.31034e+07 3.32743e+07 3.3899e+07 2.87413e+07 2.88143e+07 2.89731e+07 2.93149e+07 2.95592e+07 2.96228e+07 2.97436e+07 2.98419e+07 2.994e+07
          3.0049e+07 3.14384e+07 3.31632e+07 3.35598e+07 3.37776e+07 3.44524e+07 2.89318e+07 2.89975e+07 2.91931e+07 2.95564e+07 2.97553e+07 2.98312e+07
          2.99758e+07 3.00915e+07 3.0223e+07 3.03637e+07 3.19799e+07 3.37475e+07 3.40859e+07 3.43353e+07 3.4834e+07 2.91024e+07 2.91643e+07 2.93347e+07
          2.97013e+07 2.99619e+07 3.00401e+07 3.02046e+07 3.0341e+07 3.05056e+07 3.07021e+07 3.25833e+07 3.42473e+07 3.46267e+07 3.48491e+07 3.51648e+07
        </DataArray>
        <DataArray type="Float32" Name="velocity[0]" NumberOfComponents="1" format="ascii">
          -1.75064e-08 7.66504e-08 -4.83015e-10 -7.73656e-09 -4.32859e-10 -1.65283e-09 -9.7095e-10 8.74267e-10 1.43628e-09 -2.80823e-10 -1.57501e-09 -1.96081e-09
          -1.15131e-09 -4.74454e-10 -2.18032e-09 -3.22198e-08 1.92312e-07 -6.69405e-10 -2.91942e-08 -8.36833e-11 1.2538e-09 6.19631e-09 4.42948e-09 2.95256e-09
          -2.01922e-09 -3.19923e-09 -8.56176e-09 -5.16206e-09 -1.41914e-09 -5.78243e-09 -2.33516e-08 2.4023e-07 8.4909e-10 -8.85132e-09 2.96625e-10 2.80848e-09
          8.58656e-09 5.95537e-09 7.58128e-11 -5.53836e-09 -3.67038e-09 -2.21252e-08 -7.87034e-09 -3.05083e-09 -8.67994e-09 -1.11644e-08 2.53383e-07 9.46078e-09
          8.34495e-08 -2.81203e-09 -1.73292e-08 -2.18901e-08 -1.5552e-08 -5.88471e-09 -1.1788e-08 -4.78399e-09 -3.78408e-08 -5.63306e-09 -4.4992e-09 -1.1881e-08
          -1.05479e-07 -2.48763e-08 -6.18169e-10 -1.87703e-07 -2.18639e-08 -8.86805e-08 -9.94502e-08 -9.21791e-08 -7.52562e-09 -1.17263e-08 -6.71956e-09 -6.23987e-08
          -2.76046e-09 -4.10287e-09 -1.46864e-08 -2.15754e-07 -2.76547e-07 -1.07947e-08 -3.55597e-07 -4.5282e-08 -2.66125e-07 -1.44267e-07 -2.3275e-07 -5.2392e-09
          -5.1374e-09 -9.65422e-09 -8.86893e-08 -1.56986e-09 -3.24401e-09 -1.65955e-08 -2.13303e-07 -2.33113e-07 -2.66547e-09 -1.12175e-07 -4.11729e-08 -4.56828e-07
          -1.2091e-07 -4.0419e-07 -4.1525e-09 -2.16615e-09 -1.14611e-08 -1.04922e-07 -1.37414e-09 -3.21102e-09 -1.79373e-08 -1.8932e-07 -2.05667e-07 -2.01032e-09
          -1.81016e-08 -2.47404e-08 -5.32537e-07 -7.47528e-08 -5.61324e-07 -3.67378e-09 -1.66668e-09 -1.26608e-08 -1.15146e-07 -1.13752e-09 -3.35369e-09 -1.94656e-08
          -1.66939e-07 -1.79858e-07 -1.77793e-09 -2.26102e-09 -1.67294e-08 -5.36083e-07 -2.94192e-08 -6.89917e-07 -2.9038e-09 -1.81876e-09 -2.10536e-08 -1.10133e-07
          -1.0491e-09 -3.09311e-09 -2.14835e-08 -1.32563e-07 -1.63386e-07 -7.76395e-09 -6.23522e-11 -1.21517e-08 -5.11292e-07 -9.52715e-09 -8.17069e-07 -2.42551e-09
          -1.84215e-09 -3.55557e-08 -9.3668e-08 -1.71515e-09 -2.74295e-09 -2.35029e-08 -9.42853e-08 -1.51757e-07 -1.90535e-08 -1.28909e-09 -1.14278e-08 -4.77701e-07
          -3.1456e-09 -9.20196e-07 -4.60537e-09 -2.2604e-09 -4.35173e-08 -7.87692e-08 -5.15299e-09 -3.48906e-09 -2.5313e-08 -7.2962e-08 -1.39301e-07 -2.63333e-08
          -1.05567e-09 -1.76372e-08 -4.49513e-07 -2.41589e-09 -9.15227e-07 -2.24373e-08 -4.09553e-09 -4.23317e-08 -6.35807e-08 -2.11854e-08 -7.2522e-09 -2.71333e-08
          -6.49354e-08 -1.35915e-07 -2.29453e-08 -1.99297e-09 -2.72995e-08 -3.93046e-07 -3.11773e-09 -7.94062e-07 -8.43374e-08 -7.21236e-09 -2.5916e-08 -3.42037e-08
          -5.15276e-08 -2.19145e-08 -2.94263e-08 -6.26402e-08 -1.40444e-07 -1.26072e-08 -3.86251e-09 -3.62496e-08 -3.35901e-07 -2.76403e-09 -4.81492e-07 -1.99975e-07
          -2.61856e-08 -1.55912e-08 -8.73574e-09 -5.39022e-08 -5.21033e-08 -3.10512e-08 -6.88734e-08 -1.26719e-07 -6.45504e-09 -5.00609e-09 -4.83112e-08 -3.13545e-07
          -2.63155e-09 -3.56437e-07 -2.04902e-07 -4.23263e-08 -2.09709e-08 -8.42861e-09 -4.57939e-08 -7.54259e-08 -3.06277e-08 -7.84677e-08 -9.88955e-08 -5.09991e-09
          -9.88062e-09 -7.29971e-08 -2.72167e-07 -5.41065e-09 -4.39507e-07 -1.38879e-07 -4.45506e-08 -1.42382e-08 -1.18271e-08 -5.63564e-08 -9.50987e-08 -2.77702e-08
          -7.73124e-08 -7.49592e-08 -4.64428e-09 -1.17945e-08 -9.44417e-08 -2.27351e-07 -6.484e-09 -3.82095e-07 -1.36866e-07 -6.4571e-08 -5.26811e-09 -7.68142e-09
          -4.35754e-08 -1.32382e-07 -2.30749e-08 -7.05695e-08 -5.13008e-08 -4.53329e-09 -6.00657e-09 -1.11213e-07 -1.8306e-07 -6.42885e-09 -3.00753e-07 -1.49987e-07
          -9.89167e-08 -3.4999e-09 -4.80773e-09 -2.70468e-08 -1.68407e-07 -1.85506e-08 -6.32801e-08 -3.20766e-08 -4.28705e-09 -2.49778e-09 -1.28864e-07 -1.2026e-07
          -6.82418e-09 -2.19662e-07 -1.52319e-07 -1.57786e-07 -2.03643e-09 -3.85771e-09 -3.44045e-08 -1.89987e-07 -1.65876e-08 -5.41315e-08 -2.21534e-08 -2.33677e-09
          -1.03252e-09 -1.34678e-07 -6.80619e-08 -5.68997e-09 -1.62609e-07 -9.9452e-08 -2.75805e-07 -3.49219e-09 -5.38182e-09 -5.08994e-08 -2.00038e-07 -1.81361e-08
          -4.19169e-08 -1.4866e-08 -1.80427e-09 -3.06503e-10 -1.24065e-07 -3.52105e-08 -4.856e-09 -1.2873e-07 -4.18517e-08 -3.83686e-07 -5.44604e-09 -9.86021e-09
          -6.19728e-08 -2.07893e-07 -2.1088e-08 -2.65248e-08 -7.63508e-09 -2.61564e-09 -1.04121e-09 -9.10696e-08 -2.3684e-08 -4.72669e-09 -1.21778e-07 -2.27543e-08
          -4.05959e-07 -4.98816e-09 -1.90354e-08 -6.76836e-08 -2.16111e-07 -2.63282e-08 -1.24399e-08 -3.07619e-09 -1.17738e-09 -6.91881e-10 -4.51356e-08 -1.7522e-08
          -3.86549e-09 -1.2824e-07 -1.83337e-08 -3.49874e-07 -6.93006e-09 -3.28584e-08 -8.80259e-08 -2.2431e-07 -3.45067e-08 -3.30602e-09 -6.96649e-10 2.41383e-10
          7.70987e-11 -1.05326e-08 -6.65417e-09 -1.41146e-09 -6.52487e-08 -8.53537e-09 -1.5128e-07 -4.56916e-09 -1.99275e-08 -5.23671e-08 -1.1507e-07 -1.93951e-08
        </DataArray>
        <DataArray type="Float32" Name="velocity[1]" NumberOfComponents="1" format="ascii">
          2.72069e-24 1.23871e-23 3.26001e-25 -1.20235e-24 6.72714e-26 0 1.50897e-25 -1.0179e-26 2.07137e-25 4.8898e-24 -3.40334e-24 1.54716e-25
          2.05315e-24 -7.56346e-25 3.37557e-25 -4.34054e-25 5.69732e-24 3.06397e-25 -2.13242e-24 -3.23513e-25 7.40253e-24 5.3519e-25 -6.48064e-26 -6.89179e-24
          -3.97828e-25 0 -1.4546e-25 -1.41758e-27 1.21108e-27 2.20964e-25 -9.44172e-25 -1.38386e-23 -2.38642e-24 5.29395e-24 -3.44676e-25 0
          6.68516e-25 6.43823e-26 -4.59514e-25 0 5.63947e-24 -8.69594e-24 0 9.22442e-25 -2.31878e-25 -1.66122e-24 1.81663e-23 -1.96945e-24
          -8.18609e-24 6.23979e-25 1.19377e-23 -1.89942e-23 2.60003e-23 -2.9286e-24 1.16015e-24 2.62615e-24 -3.58704e-24 2.55073e-24 -1.07744e-24 8.05625e-25
          -3.20456e-25 -8.78092e-23 8.00826e-24 1.49959e-23 -5.92858e-25 -8.91516e-24 2.04034e-25 -1.76285e-25 -7.93446e-26 -4.5611e-24 3.10088e-24 -5.52339e-24
          -1.03377e-27 1.05256e-25 -1.22515e-24 -3.18009e-25 9.58404e-24 -8.57723e-25 1.25513e-23 2.63212e-25 -1.95463e-23 0 -2.45109e-27 1.41441e-25
          3.62345e-25 -2.67088e-25 4.32289e-24 -1.2299e-24 7.27223e-25 1.22281e-24 -1.55996e-24 2.44474e-24 0 1.31299e-23 -1.72985e-24 -3.21976e-23
          -2.65962e-27 -2.73204e-27 -1.99089e-24 1.10921e-27 -9.85512e-28 -1.15133e-27 3.32931e-26 -8.28405e-28 -1.35398e-24 -3.733e-25 1.52121e-23 1.90822e-24
          3.77338e-24 -1.1122e-27 3.94654e-23 -1.70819e-27 -3.39766e-27 9.57547e-26 -2.1684e-26 -2.37583e-24 -8.33443e-24 -8.96671e-28 -3.19184e-25 1.5915e-24
          -1.97331e-24 -1.00238e-23 -1.18827e-25 -2.4315e-24 -4.27973e-25 4.93217e-24 0 0 -5.24206e-25 1.00241e-27 7.38417e-25 2.34e-24
          -1.76427e-27 3.90558e-26 -7.92225e-28 -1.21409e-23 1.21525e-24 1.7825e-24 -2.30646e-25 -2.95807e-24 6.50482e-24 -1.22124e-23 1.06571e-23 6.94926e-25
          -1.58827e-27 -6.5619e-25 2.28947e-24 -7.6065e-25 0 -1.74729e-24 4.2692e-24 1.12653e-25 7.59851e-25 -1.19418e-25 2.45204e-24 2.71669e-27
          -8.19061e-24 1.0757e-23 3.44935e-25 6.53776e-26 7.51824e-25 4.99303e-24 1.92078e-24 -2.47871e-25 1.23936e-25 -5.147e-24 1.96548e-24 -3.73101e-25
          -1.45533e-26 -8.17342e-25 -3.37844e-23 4.33157e-26 -6.14222e-24 -1.76142e-25 -2.21781e-25 -2.4933e-24 4.38528e-24 -1.94239e-24 1.11161e-24 -1.60296e-25
          4.94382e-24 1.03336e-23 0 -1.40113e-25 7.04838e-25 6.49898e-24 6.36635e-26 -1.26801e-23 -7.19118e-24 -7.47265e-28 -8.89414e-25 -1.09202e-24
          2.70856e-24 -7.9162e-25 6.49373e-28 -1.54417e-25 1.32413e-27 6.84207e-25 -2.98769e-25 -4.07414e-27 2.69759e-23 -1.23279e-25 -3.58913e-23 1.74781e-23
          -1.09901e-23 8.90093e-25 6.51062e-24 -1.04726e-23 -7.30229e-28 -2.44146e-24 -4.78929e-24 -8.65627e-24 -1.32836e-27 3.75358e-25 1.19007e-24 3.52081e-27
          1.0014e-25 3.11277e-23 -6.51816e-24 0 0 2.65619e-25 5.38342e-24 -5.13903e-25 4.75945e-24 0 1.94543e-24 0
          -1.13292e-24 2.64013e-24 4.04548e-27 3.31765e-25 -3.54794e-24 2.13704e-27 1.25324e-27 -4.68775e-28 5.23383e-24 -1.21244e-27 -1.65914e-24 -2.31953e-24
          9.28224e-28 1.77354e-24 -1.19721e-27 4.35575e-25 6.89103e-25 -1.26797e-23 0 -1.28502e-23 0 -5.90419e-29 3.67291e-24 -4.63011e-24
          -2.54773e-24 6.58016e-28 1.58948e-24 0 4.9375e-24 0 7.00551e-25 2.6989e-24 4.3719e-24 1.55475e-25 -7.26651e-24 -6.87886e-24
          -2.7486e-24 2.40292e-25 1.06505e-25 -1.88206e-28 -2.10462e-24 -1.2935e-24 4.60103e-24 -1.93022e-24 2.35515e-24 -2.15492e-24 8.23451e-25 1.15926e-23
          -9.4032e-26 -5.33559e-24 1.27069e-23 6.77002e-24 -4.0636e-24 9.44686e-26 1.16508e-24 -8.26563e-28 1.28442e-24 -1.84103e-28 -4.05411e-24 8.69268e-25
          -1.96505e-24 1.60873e-25 -3.61852e-24 -1.63617e-25 -7.06278e-24 -6.47633e-24 1.19439e-23 3.33795e-25 4.39583e-24 1.39802e-24 -5.00719e-25 -1.03468e-24
          -1.10888e-24 6.76809e-25 0 -3.63467e-26 -1.73002e-24 5.56727e-24 -9.79001e-24 9.792e-24 -7.13613e-24 1.55112e-27 0 0
          3.23101e-25 -1.21764e-27 1.74318e-24 -1.28325e-24 -1.34117e-24 1.24497e-24 -2.09895e-24 -1.50245e-24 -1.68819e-24 2.61699e-26 6.53517e-25 -4.64038e-24
          1.6754e-23 -3.26544e-25 -8.09079e-24 5.63869e-25 1.21257e-24 -3.41468e-28 -9.0567e-25 -3.33219e-29 -1.56404e-28 1.30162e-25 -3.74144e-24 6.55623e-25
          -1.62027e-25 1.26348e-23 -5.26331e-24 0 -3.43191e-25 -1.08665e-24 8.19246e-24 -9.06653e-25 0 -5.13859e-25 -6.62404e-29 -4.20587e-25
          7.16755e-25 -1.6362e-24 -2.64091e-24 -4.40635e-25 -3.48909e-24 1.3265e-24 -3.66831e-23 0 3.68367e-23 -2.72064e-23 2.26075e-23 5.70452e-25
        </DataArray>
        <DataArray type="Float32" Name="velocity[2]" NumberOfComponents="1" format="ascii">
          -1.80576e-09 1.23986e-08 -4.65874e-09 -5.23617e-09 -3.3669e-09 -3.32132e-09 -2.9738e-09 -2.58016e-09 -2.48901e-09 -2.73453e-09 -2.72337e-09 -2.43812e-09
          -1.97037e-09 -1.62307e-09 -1.114e-09 -5.75578e-09 3.19292e-08 -3.78755e-09 -7.91039e-09 -1.98774e-09 -1.86301e-09 -1.30549e-09 -1.84317e-09 -2.08261e-09
          -2.77798e-09 -2.80129e-09 -3.33706e-09 -2.21299e-09 -1.2833e-09 -1.49633e-09 -4.41696e-09 4.13958e-08 -1.11792e-09 -4.39337e-09 -4.3171e-09 -3.57407e-09
          -2.15454e-09 -2.3761e-09 -3.1127e-09 -3.72046e-09 -3.16673e-09 -5.79578e-09 -2.75774e-09 -1.72204e-09 -2.02518e-09 -2.27343e-09 4.39156e-08 3.08805e-10
          1.0065e-08 -7.75413e-09 -9.23008e-09 -8.47376e-09 -6.09841e-09 -3.58661e-09 -4.17067e-09 -2.68049e-09 -8.05619e-09 -2.10813e-09 -1.99757e-09 -2.67235e-09
          -1.17669e-08 4.03629e-09 -1.39434e-09 -4.3674e-08 -1.82822e-08 -2.64872e-08 -2.43388e-08 -2.00819e-08 -3.64932e-09 -4.58527e-09 -3.79272e-09 -1.2465e-08
          -9.34248e-10 -1.33583e-09 -2.95231e-09 -3.72516e-08 -4.85959e-08 -3.63826e-09 -7.28518e-08 -2.55928e-08 -5.82574e-08 -3.11429e-08 -4.46803e-08 -2.36933e-09
          -2.49964e-09 -3.28185e-09 -1.65989e-08 -7.51332e-10 -1.10139e-09 -3.20518e-09 -3.82816e-08 -4.29174e-08 -2.70091e-09 -2.59894e-08 -1.80954e-08 -8.88326e-08
          -2.68575e-08 -7.48936e-08 -2.03866e-09 -1.72278e-09 -3.37903e-09 -1.93886e-08 -6.5253e-10 -9.37494e-10 -3.33625e-09 -3.40021e-08 -3.80831e-08 -2.61699e-09
          -5.92688e-09 -7.98384e-09 -9.74197e-08 -1.71332e-08 -1.01886e-07 -1.70564e-09 -1.36462e-09 -3.22867e-09 -2.10797e-08 -8.54204e-10 -1.27342e-09 -3.77303e-09
          -3.00112e-08 -3.32862e-08 -2.24205e-09 -2.44516e-09 -5.327e-09 -9.72537e-08 -8.5338e-09 -1.23803e-07 -1.14593e-09 -9.80398e-10 -3.90717e-09 -1.95999e-08
          -7.95459e-10 -1.17433e-09 -4.12338e-09 -2.48472e-08 -3.19142e-08 -3.99491e-09 -1.92366e-09 -4.07652e-09 -9.31254e-08 -5.72789e-09 -1.46439e-07 -9.62376e-10
          -8.60062e-10 -6.34853e-09 -1.66756e-08 -9.76023e-10 -1.15049e-09 -4.48487e-09 -1.75494e-08 -2.88771e-08 -5.3227e-09 -1.77894e-09 -3.5209e-09 -8.63103e-08
          -3.28565e-09 -1.64096e-07 -1.5912e-09 -1.02818e-09 -8.23725e-09 -1.47616e-08 -1.92902e-09 -1.28678e-09 -4.72934e-09 -1.33133e-08 -2.57749e-08 -5.96344e-09
          -1.29618e-09 -3.94436e-09 -8.05101e-08 -2.3492e-09 -1.64354e-07 -7.04162e-09 -2.81212e-09 -9.62076e-09 -1.40443e-08 -6.26102e-09 -2.45492e-09 -5.12831e-09
          -1.15367e-08 -2.39912e-08 -4.42333e-09 -1.18333e-09 -5.35702e-09 -7.15553e-08 -4.73435e-09 -1.46368e-07 -2.0619e-08 -4.17431e-09 -8.31995e-09 -1.19056e-08
          -1.50058e-08 -6.6644e-09 -5.60921e-09 -1.11093e-08 -2.48124e-08 -2.58993e-09 -1.39367e-09 -6.81886e-09 -6.01283e-08 -2.133e-09 -9.27114e-08 -4.50759e-08
          -9.58282e-09 -6.76175e-09 -5.60983e-09 -1.4895e-08 -1.2505e-08 -5.59621e-09 -1.16625e-08 -2.21452e-08 -1.84084e-09 -1.71301e-09 -8.93035e-09 -5.56154e-08
          -1.09798e-09 -6.06434e-08 -3.49637e-08 -1.02071e-08 -6.40793e-09 -3.81653e-09 -9.64066e-09 -1.35899e-08 -5.14101e-09 -1.36782e-08 -1.77475e-08 -1.81241e-09
          -2.39807e-09 -1.23824e-08 -4.81975e-08 -2.70596e-09 -7.98031e-08 -2.74971e-08 -1.08255e-08 -5.85124e-09 -6.02756e-09 -1.37324e-08 -1.78538e-08 -4.20572e-09
          -1.38672e-08 -1.42573e-08 -2.48843e-09 -3.94702e-09 -1.84243e-08 -4.21121e-08 -3.68049e-09 -7.08638e-08 -2.857e-08 -1.51867e-08 -4.13e-09 -4.76984e-09
          -1.23431e-08 -2.53466e-08 -3.19617e-09 -1.26582e-08 -1.00868e-08 -2.40126e-09 -2.76077e-09 -2.07969e-08 -3.43834e-08 -4.80361e-09 -5.79032e-08 -3.17629e-08
          -2.12377e-08 -3.75393e-09 -4.05402e-09 -8.00533e-09 -3.06841e-08 -2.63673e-09 -1.14274e-08 -6.54651e-09 -2.06903e-09 -1.85074e-09 -2.38764e-08 -2.34272e-08
          -4.79119e-09 -4.32536e-08 -3.29665e-08 -3.29555e-08 -3.88756e-09 -4.28842e-09 -9.21108e-09 -3.48041e-08 -2.90582e-09 -9.88192e-09 -4.72932e-09 -1.47885e-09
          -1.39461e-09 -2.49816e-08 -1.42939e-08 -4.39605e-09 -3.26862e-08 -2.46553e-08 -5.51783e-08 -3.95062e-09 -4.01988e-09 -1.13184e-08 -3.66808e-08 -3.73388e-09
          -7.86699e-09 -3.79037e-09 -1.65384e-09 -1.327e-09 -2.37319e-08 -9.10501e-09 -4.20818e-09 -2.63572e-08 -1.2292e-08 -7.22833e-08 -4.35672e-09 -5.00594e-09
          -1.39155e-08 -3.85316e-08 -4.16712e-09 -5.22767e-09 -2.59105e-09 -1.83059e-09 -1.50914e-09 -1.85257e-08 -7.9008e-09 -4.64448e-09 -2.51677e-08 -7.78436e-09
          -7.58962e-08 -5.5584e-09 -7.64213e-09 -1.55682e-08 -4.11016e-08 -5.94116e-09 -2.5821e-09 -1.40367e-09 -1.29697e-09 -1.39784e-09 -1.05612e-08 -7.17288e-09
          -4.98962e-09 -2.68888e-08 -7.52483e-09 -6.7954e-08 -9.23214e-09 -1.32434e-08 -2.1437e-08 -4.33819e-08 -7.51279e-09 -8.03391e-10 -5.98554e-10 -4.47172e-10
          -4.5165e-10 -2.8808e-09 -3.06965e-09 -2.49376e-09 -1.55282e-08 -7.78089e-09 -3.95118e-08 -1.69177e-08 -1.48727e-08 -1.70674e-08 -2.40474e-08 -4.03176e-09
        </DataArray>
        <DataArray type="Float32" Name="z[0]" NumberOfComponents="1" format="ascii">
          0.150578 0.150579 0.15058 0.150582 0.150582 0.150583 0.150584 0.150585 0.150585 0.150586 0.150587 0.150588
          0.150589 0.150591 0.150596 0.150581 0.150582 0.150583 0.150585 0.150586 0.150587 0.150587 0.150588 0.150588
          0.150589 0.15059 0.150591 0.150593 0.150595 0.150599 0.150584 0.150585 0.150587 0.150588 0.150589 0.15059
          0.15059 0.150591 0.150592 0.150593 0.150593 0.150595 0.150596 0.150598 0.150602 0.150588 0.150589 0.15059
          0.150591 0.150592 0.150593 0.150594 0.150594 0.150595 0.150596 0.150597 0.150598 0.150599 0.150601 0.150605
          0.150591 0.150592 0.150593 0.150594 0.150595 0.150596 0.150597 0.150597 0.150598 0.150599 0.1506 0.150601
          0.150602 0.150604 0.150609 0.150594 0.150595 0.150596 0.150597 0.150598 0.150599 0.1506 0.1506 0.150601