<?xml version="1.0"?>
<VTKFile type="UnstructuredGrid" version="0.1" byte_order="LittleEndian">
  <UnstructuredGrid>
    <Piece NumberOfCells="360" NumberOfPoints="800">
      <CellData Scalars="pressure[0]">
        <DataArray type="Float32" Name="pressure[0]" NumberOfComponents="1" format="ascii">
          2.10689e+07 2.10836e+07 2.1984e+07 2.28314e+07 2.31686e+07 2.35767e+07 2.37127e+07 2.37621e+07 2.3822e+07 2.38855e+07 2.40607e+07 2.43621e+07
          2.4597e+07 2.52263e+07 2.59685e+07 2.11132e+07 2.11279e+07 2.21359e+07 2.30408e+07 2.33706e+07 2.37754e+07 2.38728e+07 2.39103e+07 2.39706e+07
          2.40417e+07 2.42936e+07 2.46061e+07 2.4788e+07 2.54282e+07 2.61348e+07 2.11577e+07 2.11722e+07 2.22063e+07 2.32108e+07 2.35143e+07 2.38894e+07
          2.40034e+07 2.40572e+07 2.41333e+07 2.42323e+07 2.45827e+07 2.4952e+07 2.51119e+07 2.56884e+07 2.63452e+07 2.12029e+07 2.1221e+07 2.20392e+07
          2.3358e+07 2.36711e+07 2.40582e+07 2.41755e+07 2.42338e+07 2.43583e+07 2.45165e+07 2.49735e+07 2.53758e+07 2.55299e+07 2.59927e+07 2.66055e+07
          2.12848e+07 2.13134e+07 1.97642e+07 2.34897e+07 2.40533e+07 2.4632e+07 2.4714e+07 2.47549e+07 2.48475e+07 2.50919e+07 2.54656e+07 2.58141e+07
          2.594e+07 2.63276e+07 2.68595e+07 2.14716e+07 2.1515e+07 2.17163e+07 2.41988e+07 2.46995e+07 2.51554e+07 2.52103e+07 2.52585e+07 2.53992e+07
          2.62899e+07 2.62164e+07 2.61877e+07 2.63089e+07 2.66641e+07 2.71418e+07 2.17049e+07 2.1754e+07 2.24192e+07 2.49029e+07 2.53314e+07 2.5691e+07
          2.57496e+07 2.58127e+07 2.58892e+07 2.61873e+07 2.63971e+07 2.64601e+07 2.65902e+07 2.70192e+07 2.75291e+07 2.20313e+07 2.2084e+07 2.29785e+07
          2.53433e+07 2.58471e+07 2.61445e+07 2.61969e+07 2.62441e+07 2.63188e+07 2.64971e+07 2.66346e+07 2.66946e+07 2.68896e+07 2.738e+07 2.80583e+07
          2.24974e+07 2.25598e+07 2.35643e+07 2.54617e+07 2.63224e+07 2.65791e+07 2.66688e+07 2.67533e+07 2.67742e+07 2.68329e+07 2.68869e+07 2.6918e+07
          2.71295e+07 2.7782e+07 2.85836e+07 2.30565e+07 2.31622e+07 2.3922e+07 2.47139e+07 2.67231e+07 2.69604e+07 2.71656e+07 2.7354e+07 2.7225e+07
          2.71808e+07 2.7183e+07 2.72139e+07 2.74531e+07 2.81945e+07 2.88996e+07 2.38342e+07 2.40353e+07 2.46205e+07 2.51761e+07 2.70699e+07 2.72506e+07
          2.75806e+07 2.78649e+07 2.76801e+07 2.7569e+07 2.74849e+07 2.75209e+07 2.774e+07 2.85711e+07 2.93298e+07 2.53178e+07 2.54608e+07 2.55935e+07
          2.597e+07 2.74291e+07 2.75381e+07 2.80079e+07 2.83928e+07 2.84596e+07 2.82006e+07 2.81944e+07 2.82697e+07 2.87249e+07 2.91474e+07 3.00266e+07
          2.63974e+07 2.64286e+07 2.63107e+07 2.66436e+07 2.79058e+07 2.80156e+07 2.85196e+07 2.89629e+07 2.90594e+07 2.90764e+07 2.90763e+07 2.92788e+07
          2.97413e+07 3.04772e+07 3.0646e+07 2.72524e+07 2.72833e+07 2.70408e+07 2.79239e+07 2.87004e+07 2.87824e+07 2.91979e+07 2.95277e+07 2.95955e+07
          2.96793e+07 2.97598e+07 3.0194e+07 3.077e+07 3.12207e+07 3.1042e+07 2.79462e+07 2.79459e+07 2.7964e+07 2.90218e+07 2.94352e+07 2.94936e+07
          2.97716e+07 2.99713e+07 3.00212e+07 3.00984e+07 3.02462e+07 3.09243e+07 3.14525e+07 3.16195e+07 3.1509e+07 2.85704e+07 2.8596e+07 2.86882e+07
          2.96681e+07 2.98842e+07 2.99378e+07 3.01351e+07 3.02659e+07 3.03139e+07 3.03843e+07 3.06524e+07 3.13034e+07 3.17891e+07 3.20728e+07 3.19504e+07
          2.92167e+07 2.9268e+07 2.96404e+07 3.01429e+07 3.02551e+07 3.02942e+07 3.03994e+07 3.04917e+07 3.05386e+07 3.05997e+07 3.09512e+07 3.17248e+07
          3.22476e+07 3.25246e+07 3.2356e+07 2.97415e+07 2.98008e+07 3.01446e+07 3.04061e+07 3.05216e+07 3.0566e+07 3.06489e+07 3.07184e+07 3.07672e+07
          3.08235e+07 3.12541e+07 3.2071e+07 3.26051e+07 3.28341e+07 3.27601e+07 3.00401e+07 3.01053e+07 3.03102e+07 3.06039e+07 3.07568e+07 3.08042e+07
          3.08776e+07 3.09394e+07 3.09846e+07 3.1039e+07 3.15118e+07 3.2414e+07 3.29608e+07 3.31353e+07 3.33101e+07 3.0282e+07 3.03401e+07 3.05241e+07
          3.08157e+07 3.09662e+07 3.10141e+07 3.10856e+07 3.11444e+07 3.11899e+07 3.12499e+07 3.17183e+07 3.27118e+07 3.33119e+07 3.34516e+07 3.38343e+07
          3.04877e+07 3.05528e+07 3.07002e+07 3.09699e+07 3.11557e+07 3.12078e+07 3.12845e+07 3.13466e+07 3.14062e+07 3.14808e+07 3.21409e+07 3.3203e+07
          3.36394e+07 3.37864e+07 3.42481e+07 3.06853e+07 3.07527e+07 3.08846e+07 3.11479e+07 3.13369e+07 3.13938e+07 3.14822e+07 3.1553e+07 3.16292e+07
          3.17145e+07 3.26034e+07 3.37066e+07 3.39781e+07 3.41543e+07 3.46518e+07 3.08669e+07 3.09289e+07 3.10863e+07 3.13631e+07 3.15182e+07 3.15829e+07
          3.16864e+07 3.17683e+07 3.18655e+07 3.19707e+07 3.29993e+07 3.41266e+07 3.43602e+07 3.45561e+07 3.49481e+07 3.10342e+07 3.10934e+07 3.12322e+07
          3.15093e+07 3.17065e+07 3.17727e+07 3.18889e+07 3.19839e+07 3.21017e+07 3.22416e+07 3.34341e+07 3.4495e+07 3.47535e+07 3.4932e+07 3.52128e+07
        </DataArray>
        <DataArray type="Float32" Name="pressure[1]" NumberOfComponents="1" format="ascii">
          2.10689e+07 2.10836e+07 2.1984e+07 2.28314e+07 2.31686e+07 2.35767e+07 2.37127e+07 2.37621e+07 2.3822e+07 2.38855e+07 2.40607e+07 2.43621e+07
          2.4597e+07 2.52263e+07 2.59685e+07 2.11132e+07 2.11279e+07 2.21359e+07 2.30408e+07 2.33706e+07 2.37754e+07 2.38728e+07 2.39103e+07 2.39706e+07
          2.40417e+07 2.42936e+07 2.46061e+07 2.4788e+07 2.54282e+07 2.61348e+07 2.11577e+07 2.11722e+07 2.22063e+07 2.32108e+07 2.35143e+07 2.38894e+07
          2.40034e+07 2.40572e+07 2.41333e+07 2.42323e+07 2.45827e+07 2.4952e+07 2.51119e+07 2.56884e+07 2.63452e+07 2.12029e+07 2.1221e+07 2.20392e+07
          2.3358e+07 2.36711e+07 2.40582e+07 2.41755e+07 2.42338e+07 2.43583e+07 2.45165e+07 2.49735e+07 2.53758e+07 2.55299e+07 2.59927e+07 2.66055e+07
          2.12848e+07 2.13134e+07 1.97642e+07 2.34897e+07 2.40533e+07 2.4632e+07 2.4714e+07 2.47549e+07 2.48475e+07 2.50919e+07 2.54656e+07 2.58141e+07
          2.594e+07 2.63276e+07 2.68595e+07 2.14716e+07 2.1515e+07 2.17163e+07 2.41988e+07 2.46995e+07 2.51554e+07 2.52103e+07 2.52585e+07 2.53992e+07
          2.62899e+07 2.62164e+07 2.61877e+07 2.63089e+07 2.66641e+07 2.71418e+07 2.17049e+07 2.1754e+07 2.24192e+07 2.49029e+07 2.53314e+07 2.5691e+07
          2.57496e+07 2.58127e+07 2.58892e+07 2.61873e+07 2.63971e+07 2.64601e+07 2.65902e+07 2.70192e+07 2.75291e+07 2.20313e+07 2.2084e+07 2.29785e+07
          2.53433e+07 2.58471e+07 2.61445e+07 2.61969e+07 2.62441e+07 2.63188e+07 2.64971e+07 2.66346e+07 2.66946e+07 2.68896e+07 2.738e+07 2.80583e+07
          2.24974e+07 2.25598e+07 2.35643e+07 2.54617e+07 2.63224e+07 2.65791e+07 2.66688e+07 2.67533e+07 2.67742e+07 2.68329e+07 2.68869e+07 2.6918e+07
          2.71295e+07 2.7782e+07 2.85836e+07 2.30565e+07 2.31622e+07 2.3922e+07 2.47139e+07 2.67231e+07 2.69604e+07 2.71656e+07 2.7354e+07 2.7225e+07
          2.71808e+07 2.7183e+07 2.72139e+07 2.74531e+07 2.81945e+07 2.88996e+07 2.38342e+07 2.40353e+07 2.46205e+07 2.51761e+07 2.70699e+07 2.72506e+07
          2.75806e+07 2.78649e+07 2.76801e+07 2.7569e+07 2.74849e+07 2.75209e+07 2.774e+07 2.85711e+07 2.93298e+07 2.53178e+07 2.54608e+07 2.55935e+07
          2.597e+07 2.74291e+07 2.75381e+07 2.80079e+07 2.83928e+07 2.84596e+07 2.82006e+07 2.81944e+07 2.82697e+07 2.87249e+07 2.91474e+07 3.00266e+07
          2.63974e+07 2.64286e+07 2.63107e+07 2.66436e+07 2.79058e+07 2.80156e+07 2.85196e+07 2.89629e+07 2.90594e+07 2.90764e+07 2.90763e+07 2.92788e+07
          2.97413e+07 3.04772e+07 3.0646e+07 2.72524e+07 2.72833e+07 2.70408e+07 2.79239e+07 2.87004e+07 2.87824e+07 2.91979e+07 2.95277e+07 2.95955e+07
          2.96793e+07 2.97598e+07 3.0194e+07 3.077e+07 3.12207e+07 3.1042e+07 2.79462e+07 2.79459e+07 2.7964e+07 2.90218e+07 2.94352e+07 2.94936e+07
          2.97716e+07 2.99713e+07 3.00212e+07 3.00984e+07 3.02462e+07 3.09243e+07 3.14525e+07 3.16195e+07 3.1509e+07 2.85704e+07 2.8596e+07 2.86882e+07
          2.96681e+07 2.98842e+07 2.99378e+07 3.01351e+07 3.02659e+07 3.03139e+07 3.03843e+07 3.06524e+07 3.13034e+07 3.17891e+07 3.20728e+07 3.19504e+07
          2.92167e+07 2.9268e+07 2.96404e+07 3.01429e+07 3.02551e+07 3.02942e+07 3.03994e+07 3.04917e+07 3.05386e+07 3.05997e+07 3.09512e+07 3.17248e+07
          3.22476e+07 3.25246e+07 3.2356e+07 2.97415e+07 2.98008e+07 3.01446e+07 3.04061e+07 3.05216e+07 3.0566e+07 3.06489e+07 3.07184e+07 3.07672e+07
          3.08235e+07 3.12541e+07 3.2071e+07 3.26051e+07 3.28341e+07 3.27601e+07 3.00401e+07 3.01053e+07 3.03102e+07 3.06039e+07 3.07568e+07 3.08042e+07
          3.08776e+07 3.09394e+07 3.09846e+07 3.1039e+07 3.15118e+07 3.2414e+07 3.29608e+07 3.31353e+07 3.33101e+07 3.0282e+07 3.03401e+07 3.05241e+07
          3.08157e+07 3.09662e+07 3.10141e+07 3.10856e+07 3.11444e+07 3.11899e+07 3.12499e+07 3.17183e+07 3.27118e+07 3.33119e+07 3.34516e+07 3.38343e+07
          3.04877e+07 3.05528e+07 3.07002e+07 3.09699e+07 3.11557e+07 3.12078e+07 3.12845e+07 3.13466e+07 3.14062e+07 3.14808e+07 3.21409e+07 3.3203e+07
          3.36394e+07 3.37864e+07 3.42481e+07 3.06853e+07 3.07527e+07 3.08846e+07 3.11479e+07 3.13369e+07 3.13938e+07 3.14822e+07 3.1553e+07 3.16292e+07
          3.17145e+07 3.26034e+07 3.37066e+07 3.39781e+07 3.41543e+07 3.46518e+07 3.08669e+07 3.09289e+07 3.10863e+07 3.13631e+07 3.15182e+07 3.15829e+07
          3.16864e+07 3.17683e+07 3.18655e+07 3.19707e+07 3.29993e+07 3.41266e+07 3.43602e+07 3.45561e+07 3.49481e+07 3.10342e+07 3.10934e+07 3.12322e+07
          3.15093e+07 3.17065e+07 3.17727e+07 3.18889e+07 3.19839e+07 3.21017e+07 3.22416e+07 3.34341e+07 3.4495e+07 3.47535e+07 3.4932e+07 3.52128e+07
        </DataArray>
        <DataArray type="Float32" Name="pressure[2]" NumberOfComponents="1" format="ascii">
          2.10689e+07 2.10836e+07 2.1984e+07 2.28314e+07 2.31686e+07 2.35767e+07 2.37127e+07 2.37621e+07 2.3822e+07 2.38855e+07 2.40607e+07 2.43621e+07
          2.4597e+07 2.52263e+07 2.59685e+07 2.11132e+07 2.11279e+07 2.21359e+07 2.30408e+07 2.33706e+07 2.37754e+07 2.38728e+07 2.39103e+07 2.39706e+07
          2.40417e+07 2.42936e+07 2.46061e+07 2.4788e+07 2.54282e+07 2.61348e+07 2.11577e+07 2.11722e+07 2.22063e+07 2.32108e+07 2.35143e+07 2.38894e+07
          2.40034e+07 2.40572e+07 2.41333e+07 2.42323e+07 2.45827e+07 2.4952e+07 2.51119e+07 2.56884e+07 2.63452e+07 2.12029e+07 2.1221e+07 2.20392e+07
          2.3358e+07 2.36711e+07 2.40582e+07 2.41755e+07 2.42338e+07 2.43583e+07 2.45165e+07 2.49735e+07 2.53758e+07 2.55299e+07 2.59927e+07 2.66055e+07
          2.12848e+07 2.13134e+07 1.97642e+07 2.34897e+07 2.40533e+07 2.4632e+07 2.4714e+07 2.47549e+07 2.48475e+07 2.50919e+07 2.54656e+07 2.58141e+07
          2.594e+07 2.63276e+07 2.68595e+07 2.14716e+07 2.1515e+07 2.17163e+07 2.41988e+07 2.46995e+07 2.51554e+07 2.52103e+07 2.52585e+07 2.53992e+07
          2.62899e+07 2.62164e+07 2.61877e+07 2.63089e+07 2.66641e+07 2.71418e+07 2.17049e+07 2.1754e+07 2.24192e+07 2.49029e+07 2.53314e+07 2.5691e+07
          2.57496e+07 2.58127e+07 2.58892e+07 2.61873e+07 2.63971e+07 2.64601e+07 2.65902e+07 2.70192e+07 2.75291e+07 2.20313e+07 2.2084e+07 2.29785e+07
          2.53433e+07 2.58471e+07 2.61445e+07 2.61969e+07 2.62441e+07 2.63188e+07 2.64971e+07 2.66346e+07 2.66946e+07 2.68896e+07 2.738e+07 2.80583e+07
          2.24974e+07 2.25598e+07 2.35643e+07 2.54617e+07 2.63224e+07 2.65791e+07 2.66688e+07 2.67533e+07 2.67742e+07 2.68329e+07 2.68869e+07 2.6918e+07
          2.71295e+07 2.7782e+07 2.85836e+07 2.30565e+07 2.31622e+07 2.3922e+07 2.47139e+07 2.67231e+07 2.69604e+07 2.71656e+07 2.7354e+07 2.7225e+07
          2.71808e+07 2.7183e+07 2.72139e+07 2.74531e+07 2.81945e+07 2.88996e+07 2.38342e+07 2.40353e+07 2.46205e+07 2.51761e+07 2.70699e+07 2.72506e+07
          2.75806e+07 2.78649e+07 2.76801e+07 2.7569e+07 2.74849e+07 2.75209e+07 2.774e+07 2.85711e+07 2.93298e+07 2.53178e+07 2.54608e+07 2.55935e+07
          2.597e+07 2.74291e+07 2.75381e+07 2.80079e+07 2.83928e+07 2.84596e+07 2.82006e+07 2.81944e+07 2.82697e+07 2.87249e+07 2.91474e+07 3.00266e+07
          2.63974e+07 2.64286e+07 2.63107e+07 2.66436e+07 2.79058e+07 2.80156e+07 2.85196e+07 2.89629e+07 2.90594e+07 2.90764e+07 2.90763e+07 2.92788e+07
          2.97413e+07 3.04772e+07 3.0646e+07 2.72524e+07 2.72833e+07 2.70408e+07 2.79239e+07 2.87004e+07 2.87824e+07 2.91979e+07 2.95277e+07 2.95955e+07
          2.96793e+07 2.97598e+07 3.0194e+07 3.077e+07 3.12207e+07 3.1042e+07 2.79462e+07 2.79459e+07 2.7964e+07 2.90218e+07 2.94352e+07 2.94936e+07
          2.97716e+07 2.99713e+07 3.00212e+07 3.00984e+07 3.02462e+07 3.09243e+07 3.14525e+07 3.16195e+07 3.1509e+07 2.85704e+07 2.8596e+07 2.86882e+07
          2.96681e+07 2.98842e+07 2.99378e+07 3.01351e+07 3.02659e+07 3.03139e+07 3.03843e+07 3.06524e+07 3.13034e+07 3.17891e+07 3.20728e+07 3.19504e+07
          2.92167e+07 2.9268e+07 2.96404e+07 3.01429e+07 3.02551e+07 3.02942e+07 3.03994e+07 3.04917e+07 3.05386e+07 3.05997e+07 3.09512e+07 3.17248e+07
          3.22476e+07 3.25246e+07 3.2356e+07 2.97415e+07 2.98008e+07 3.01446e+07 3.04061e+07 3.05216e+07 3.0566e+07 3.06489e+07 3.07184e+07 3.07672e+07
          3.08235e+07 3.12541e+07 3.2071e+07 3.26051e+07 3.28341e+07 3.27601e+07 3.00401e+07 3.01053e+07 3.03102e+07 3.06039e+07 3.07568e+07 3.08042e+07
          3.08776e+07 3.09394e+07 3.09846e+07 3.1039e+07 3.15118e+07 3.2414e+07 3.29608e+07 3.31353e+07 3.33101e+07 3.0282e+07 3.03401e+07 3.05241e+07
          3.08157e+07 3.09662e+07 3.10141e+07 3.10856e+07 3.11444e+07 3.11899e+07 3.12499e+07 3.17183e+07 3.27118e+07 3.33119e+07 3.34516e+07 3.38343e+07
          3.04877e+07 3.05528e+07 3.07002e+07 3.09699e+07 3.11557e+07 3.12078e+07 3.12845e+07 3.13466e+07 3.14062e+07 3.14808e+07 3.21409e+07 3.3203e+07
          3.36394e+07 3.37864e+07 3.42481e+07 3.06853e+07 3.07527e+07 3.08846e+07 3.11479e+07 3.13369e+07 3.13938e+07 3.14822e+07 3.1553e+07 3.16292e+07
          3.17145e+07 3.26034e+07 3.37066e+07 3.39781e+07 3.41543e+07 3.46518e+07 3.08669e+07 3.09289e+07 3.10863e+07 3.13631e+07 3.15182e+07 3.15829e+07
          3.16864e+07 3.17683e+07 3.18655e+07 3.19707e+07 3.29993e+07 3.41266e+07 3.43602e+07 3.45561e+07 3.49481e+07 3.10342e+07 3.10934e+07 3.12322e+07
          3.15093e+07 3.17065e+07 3.17727e+07 3.18889e+07 3.19839e+07 3.21017e+07 3.22416e+07 3.34341e+07 3.4495e+07 3.47535e+07 3.4932e+07 3.52128e+07
        </DataArray>
        <DataArray type="Float32" Name="velocity[0]" NumberOfComponents="1" format="ascii">
          -1.27462e-09 5.507e-08 -1.29043e-10 -2.16445e-08 -7.07605e-10 -2.42023e-09 -3.58879e-09 -1.12204e-09 -2.19473e-09 -2.89381e-09 -2.29344e-09 -3.44919e-09
          -2.52135e-09 -6.6843e-10 -2.6432e-09 -7.23071e-09 1.62207e-07 3.00058e-10 -7.35785e-08 -7.35294e-10 -9.48647e-10 -1.42221e-09 -1.9572e-09 -6.92152e-09
          -8.67735e-09 -4.97226e-09 -1.4354e-08 -9.00345e-09 -2.05055e-09 -6.99206e-09 -2.54803e-08 2.47977e-07 1.61376e-09 -8.30124e-08 -3.78332e-10 -6.00128e-10
          -2.64188e-09 -5.43192e-09 -1.27379e-08 -1.49554e-08 -6.38987e-09 -3.49889e-08 -1.21805e-08 -4.20031e-09 -1.03841e-08 -2.50035e-08 2.74527e-07 9.44503e-09
          -2.20186e-08 -2.2647e-09 -1.55226e-08 -3.03476e-08 -2.89488e-08 -2.29187e-08 -2.41991e-08 -8.66058e-09 -6.36261e-08 -8.41318e-09 -5.84451e-09 -1.39477e-08
          -6.86311e-08 4.00812e-08 3.24232e-09 -6.05452e-08 -7.99426e-09 -4.35607e-08 -6.17872e-08 -5.86745e-08 -2.37523e-08 -3.03386e-08 -1.4801e-08 -1.07462e-07
          -4.19667e-09 -5.21219e-09 -1.69385e-08 -1.36214e-07 -1.71854e-07 -6.41262e-09 -9.72822e-08 -1.41936e-08 -9.78664e-08 -6.59533e-08 -9.14127e-08 -1.38791e-08
          -1.3835e-08 -1.09109e-08 -1.27971e-07 -2.30859e-09 -4.0636e-09 -1.88421e-08 -1.415e-07 -1.53147e-07 -2.65396e-09 -3.2018e-08 -1.31051e-08 -1.56947e-07
          -4.96109e-08 -1.5014e-07 -8.2193e-09 6.93584e-10 -6.56486e-09 -1.22361e-07 -1.70384e-09 -3.84805e-09 -2.01115e-08 -1.31314e-07 -1.43563e-07 -3.14441e-09
          -4.15006e-09 -8.12665e-09 -1.84705e-07 -2.7854e-08 -2.20662e-07 -5.43952e-09 -1.6878e-09 -1.25092e-08 -1.24452e-07 -1.29755e-09 -3.84946e-09 -2.15705e-08
          -1.18956e-07 -1.31018e-07 -3.24331e-09 2.64473e-09 -5.46348e-09 -1.95403e-07 -1.08104e-08 -2.8501e-07 -3.83583e-09 -1.93909e-09 -2.12807e-08 -1.13793e-07
          -1.15684e-09 -3.46653e-09 -2.35343e-08 -9.26484e-08 -1.17023e-07 -1.03702e-08 1.07907e-09 -4.35206e-09 -1.997e-07 -3.68335e-09 -3.49336e-07 -3.58631e-09
          -2.62139e-09 -3.58554e-08 -8.95351e-08 -1.69393e-09 -3.16948e-09 -2.54826e-08 -5.56154e-08 -8.9684e-08 -3.42586e-08 -2.87877e-09 -4.80071e-09 -2.03091e-07
          -1.26441e-09 -4.12074e-07 -4.56885e-09 -5.88724e-09 -4.4113e-08 -6.06714e-08 -4.10147e-09 -5.02577e-09 -2.67984e-08 -3.33891e-08 -6.19825e-08 -5.21615e-08
          -2.68528e-09 -7.36168e-09 -2.08708e-07 -1.05913e-09 -4.4934e-07 -1.35525e-08 -7.00556e-09 -3.87244e-08 -3.71649e-08 -1.09025e-08 -7.96003e-09 -2.76068e-08
          -2.9976e-08 -5.9794e-08 -4.37735e-08 -2.45701e-09 -1.20608e-08 -1.98748e-07 -1.51084e-09 -4.52871e-07 -4.01895e-08 -5.9686e-09 -2.55879e-08 -1.84626e-08
          -2.2581e-08 -1.23529e-08 -2.79601e-08 -3.30785e-08 -6.92332e-08 -2.67051e-08 -2.66343e-09 -1.7448e-08 -1.83097e-07 -1.53264e-09 -4.22146e-07 -7.04649e-08
          -1.07031e-08 -1.49741e-08 -5.61067e-09 -2.77291e-08 -2.21649e-08 -2.65751e-08 -4.13503e-08 -6.60103e-08 -1.49453e-08 -2.50233e-09 -2.28091e-08 -1.78986e-07
          -1.0743e-09 -3.78927e-07 -8.49287e-08 -1.84568e-08 -1.0746e-08 -3.01811e-09 -2.60895e-08 -3.46687e-08 -2.35553e-08 -5.12291e-08 -5.29096e-08 -7.04271e-09
          -2.87636e-09 -2.84565e-08 -1.75836e-07 -1.31413e-09 -3.20598e-07 -8.85166e-08 -2.6691e-08 -6.83894e-09 -4.1677e-09 -2.97173e-08 -5.10826e-08 -1.9726e-08
          -5.46801e-08 -4.1806e-08 -3.24522e-09 -3.81907e-09 -4.02697e-08 -1.53493e-07 -2.54577e-09 -2.53443e-07 -8.90373e-08 -4.18172e-08 -2.95457e-09 -4.1447e-09
          -2.43175e-08 -7.58678e-08 -1.56082e-08 -5.33752e-08 -3.31173e-08 -1.38773e-09 -2.55405e-09 -5.93738e-08 -1.10226e-07 -3.91469e-09 -1.93783e-07 -9.60691e-08
          -6.30795e-08 -2.11632e-09 -2.81053e-09 -1.58121e-08 -9.91987e-08 -1.21495e-08 -4.78809e-08 -2.35278e-08 -9.71629e-10 -1.03627e-09 -7.36552e-08 -7.00114e-08
          -4.12181e-09 -1.38426e-07 -9.60782e-08 -9.92216e-08 -1.233e-09 -2.31962e-09 -2.06996e-08 -1.13418e-07 -1.06204e-08 -3.96057e-08 -1.58188e-08 -1.19818e-09
          -4.94898e-10 -7.86851e-08 -3.99055e-08 -3.44682e-09 -1.01327e-07 -6.21945e-08 -1.72261e-07 -2.16103e-09 -3.30357e-09 -3.07851e-08 -1.20308e-07 -1.14198e-08
          -3.02258e-08 -1.06599e-08 -1.1177e-09 -1.17446e-10 -7.33204e-08 -2.09334e-08 -2.96295e-09 -7.97427e-08 -2.60505e-08 -2.39245e-07 -3.39325e-09 -6.08904e-09
          -3.74514e-08 -1.25758e-07 -1.31132e-08 -1.8994e-08 -5.42983e-09 -1.79557e-09 -6.85549e-10 -5.43135e-08 -1.42902e-08 -2.90543e-09 -7.54305e-08 -1.41519e-08
          -2.53076e-07 -3.09597e-09 -1.16963e-08 -4.10008e-08 -1.31286e-07 -1.62675e-08 -8.85789e-09 -2.1669e-09 -8.08613e-10 -4.52218e-10 -2.71859e-08 -1.07038e-08
          -2.39042e-09 -7.97843e-08 -1.14195e-08 -2.18139e-07 -4.29594e-09 -2.01652e-08 -5.37818e-08 -1.36801e-07 -2.12342e-08 -2.34506e-09 -4.87289e-10 1.82168e-10
          7.03495e-11 -6.43976e-09 -4.09221e-09 -8.7629e-10 -4.07048e-08 -5.32181e-09 -9.43317e-08 -2.83434e-09 -1.22334e-08 -3.21177e-08 -7.03131e-08 -1.19216e-08
        </DataArray>
        <DataArray type="Float32" Name="velocity[1]" NumberOfComponents="1" format="ascii">
          1.98091e-25 8.73576e-24 -5.61219e-26 -3.3638e-24 1.0997e-25 0 5.5774e-25 8.04353e-26 -1.8003e-25 5.52987e-24 -3.27371e-24 -1.01207e-25
          2.23325e-24 -9.77699e-25 4.1297e-25 7.27554e-25 7.9439e-24 -4.21424e-26 -4.70737e-24 4.32052e-26 8.20276e-24 1.5368e-24 4.12162e-25 -8.04498e-24
          2.56463e-25 0 9.13832e-26 -1.14199e-25 -5.05e-27 2.6508e-25 2.10865e-24 -1.14645e-23 -2.99185e-24 3.24123e-24 2.95571e-25 0
          1.28732e-24 6.65867e-25 -5.10426e-25 0 6.61697e-24 -1.1282e-23 0 1.041e-24 -2.58421e-25 -4.46451e-24 1.98108e-23 -2.27235e-24
          2.62875e-24 5.82579e-25 1.07514e-23 -2.31835e-23 2.94755e-23 -2.18737e-24 3.04421e-25 3.48427e-24 -4.12565e-24 2.5452e-24 -1.16113e-24 8.73777e-25
          7.82796e-27 -7.06481e-23 3.39382e-24 4.20895e-24 1.48342e-25 -2.35518e-24 -9.39926e-26 -3.97165e-26 1.88611e-24 -4.44132e-24 4.68666e-24 -7.98097e-24
          3.57102e-26 1.36146e-25 -1.40276e-24 -1.0859e-26 4.77364e-24 -2.73348e-25 3.84259e-24 -8.07808e-26 -5.7338e-24 0 1.50706e-24 8.86791e-24
          -1.06251e-23 -4.96671e-24 1.16097e-23 -1.10758e-24 6.11426e-25 1.40554e-24 -6.91552e-25 5.75885e-25 0 3.40076e-24 -5.71003e-25 -1.08938e-23
          1.96091e-25 -1.65746e-25 -7.30239e-25 -5.5964e-26 2.0629e-25 1.40799e-25 -6.91106e-26 9.24469e-27 -1.52553e-24 -4.58026e-26 1.05492e-23 1.01383e-24
          1.58043e-24 9.20647e-26 1.27224e-23 3.02973e-26 1.04662e-25 3.82265e-25 5.45836e-26 -1.55045e-24 -9.02571e-24 5.98031e-26 -2.70924e-25 1.75227e-24
          -1.10262e-24 -7.4868e-24 -3.83769e-26 -2.16697e-24 -1.2827e-25 2.11538e-24 0 0 4.01092e-25 -6.00736e-26 2.18384e-25 3.26052e-24
          1.01605e-25 5.77326e-26 4.83432e-28 -8.71526e-24 1.42616e-24 1.66777e-24 -6.78363e-25 -2.27864e-24 2.61621e-24 -4.91307e-24 5.36578e-24 -2.67067e-25
          -3.8688e-26 2.59011e-25 2.88012e-24 -7.34436e-25 0 -1.90524e-24 2.74008e-25 8.12493e-26 2.52306e-24 -2.16344e-25 2.25326e-24 -2.79583e-27
          -3.23234e-24 8.76757e-24 5.51981e-26 3.8667e-25 -8.22375e-25 4.41621e-24 1.55196e-24 -1.05552e-25 5.2776e-26 -2.22916e-24 2.43473e-24 -2.70303e-25
          1.05944e-25 -1.40336e-24 -1.63851e-23 2.68952e-26 1.40986e-24 -2.66627e-24 2.69195e-25 7.06622e-25 1.62417e-24 -7.32484e-25 8.40913e-25 -6.9509e-26
          2.42974e-24 4.19298e-24 0 -1.46353e-26 4.50854e-25 1.88252e-24 4.57207e-26 -8.58055e-25 -2.83037e-24 5.13137e-27 -1.47024e-24 -6.34941e-25
          1.10181e-24 -7.00596e-25 -1.21314e-27 2.81854e-25 -3.28311e-27 5.53961e-25 -3.62933e-26 2.13445e-27 1.39307e-23 -3.8153e-26 -3.91636e-24 5.29642e-24
          -1.14124e-24 1.46055e-24 1.75353e-24 -3.52678e-24 6.90523e-28 -1.96454e-24 -2.70398e-24 -4.60712e-24 3.14241e-27 2.15686e-25 4.45383e-25 -4.84721e-28
          -3.13104e-26 -6.85873e-24 1.80291e-24 0 0 2.37024e-25 3.02758e-24 -3.91601e-25 3.66168e-24 0 9.79083e-25 0
          -2.73815e-25 4.33794e-25 -4.74071e-28 6.85827e-26 -6.26258e-24 8.40014e-28 5.45012e-28 5.5176e-28 3.26239e-24 5.12492e-28 -9.65596e-25 -1.69456e-24
          -1.55526e-28 7.47058e-25 6.80055e-28 -4.68624e-26 1.40427e-24 -7.99059e-24 0 -8.25493e-24 0 -1.95342e-28 2.41485e-24 -2.99034e-24
          -1.35958e-24 -5.16707e-29 1.05537e-24 0 2.87531e-24 0 3.19927e-25 1.36276e-24 3.88202e-24 8.88654e-26 -5.0981e-24 -4.37943e-24
          -1.67747e-24 1.41687e-25 4.07558e-26 2.47643e-28 -1.38958e-24 -8.32814e-25 3.39746e-24 -1.75122e-24 1.89581e-24 -1.53843e-24 6.54675e-25 6.73877e-24
          -5.66882e-26 -3.50494e-24 8.06276e-24 4.30105e-24 -2.58759e-24 5.59682e-26 7.21476e-25 -1.36014e-28 8.17718e-25 4.35817e-28 -3.09188e-24 6.71491e-25
          -1.40402e-24 2.54663e-25 -2.08377e-24 -9.53678e-26 -4.52036e-24 -4.07521e-24 7.41321e-24 2.10655e-25 2.77017e-24 8.46194e-25 -2.78469e-25 -6.78378e-25
          -8.1802e-25 4.91023e-25 0 -3.15427e-26 -9.61332e-25 3.48802e-24 -6.13108e-24 6.13335e-24 -4.46398e-24 7.33369e-28 0 0
          1.89933e-25 -3.72434e-28 1.08088e-24 -9.27542e-25 -9.7728e-25 8.99786e-25 -1.51135e-24 -6.2807e-25 -1.02673e-24 1.71702e-26 4.23918e-25 -2.91886e-24
          1.05162e-23 -2.00238e-25 -5.04896e-24 3.61562e-25 7.33315e-25 1.56783e-28 -6.4724e-25 -4.7462e-28 -5.60736e-28 9.04635e-26 -2.22405e-24 3.92299e-25
          -9.91285e-26 7.9723e-24 -3.31038e-24 0 -2.13341e-25 -6.68363e-25 5.13951e-24 -5.94983e-25 0 -3.64911e-25 -5.18184e-28 -2.9751e-25
          5.03771e-25 -1.00013e-24 -1.68604e-24 -2.74116e-25 -2.12574e-24 8.27073e-25 -2.29125e-23 0 2.29199e-23 -1.68131e-23 1.38933e-23 3.48959e-25
        </DataArray>
        <DataArray type="Float32" Name="velocity[2]" NumberOfComponents="1" format="ascii">
          -1.84501e-10 7.09471e-09 -5.35532e-09 -8.13451e-09 -3.41641e-09 -3.67765e-09 -3.77537e-09 -3.26759e-09 -3.38076e-09 -3.36272e-09 -3.08503e-09 -3.02825e-09
          -2.58883e-09 -2.01239e-09 -1.34246e-09 -1.00867e-09 2.65795e-08 -4.59779e-09 -1.62336e-08 -2.01296e-09 -2.38416e-09 -2.90411e-09 -3.21208e-09 -4.02699e-09
          -4.17014e-09 -3.45924e-09 -4.72652e-09 -3.15592e-09 -1.6013e-09 -1.79602e-09 -3.62873e-09 4.37566e-08 -1.50062e-09 -1.76397e-08 -4.19335e-09 -4.15218e-09
          -4.25593e-09 -4.51043e-09 -5.57972e-09 -5.72584e-09 -4.08075e-09 -8.33149e-09 -3.63921e-09 -2.09424e-09 -2.38926e-09 -5.38691e-09 4.67755e-08 -2.78326e-10
          -8.50689e-09 -7.00164e-09 -8.80545e-09 -1.04084e-08 -9.10802e-09 -7.14664e-09 -6.8183e-09 -3.85011e-09 -1.28101e-08 -2.59298e-09 -2.30832e-09 -3.08159e-09
          -8.26046e-09 1.20775e-08 1.01593e-09 -1.34787e-08 -5.36956e-09 -1.07021e-08 -1.29042e-08 -1.18132e-08 -5.92858e-09 -7.89978e-09 -5.52009e-09 -2.0577e-08
          -1.08683e-09 -1.50941e-09 -3.355e-09 -2.33537e-08 -2.97456e-08 -1.70458e-09 -2.0212e-08 -7.60506e-09 -2.05394e-08 -1.33398e-08 -1.76476e-08 -5.45341e-09
          -4.53708e-09 -1.19838e-09 -2.22764e-08 -7.22687e-10 -1.17457e-09 -3.58284e-09 -2.52477e-08 -2.77479e-08 -1.40641e-09 -7.8334e-09 -5.89755e-09 -3.04927e-08
          -1.08957e-08 -2.793e-08 -2.17135e-09 -7.77839e-10 -1.78426e-09 -2.19243e-08 -5.96782e-10 -9.99008e-10 -3.70381e-09 -2.35061e-08 -2.62839e-08 -1.73778e-09
          -2.14442e-09 -3.25813e-09 -3.42772e-08 -6.69487e-09 -4.01138e-08 -1.33291e-09 -7.59194e-10 -2.63608e-09 -2.23815e-08 -7.7276e-10 -1.30354e-09 -4.12831e-09
          -2.14054e-08 -2.42411e-08 -1.96846e-09 -1.01667e-09 -2.59783e-09 -3.59194e-08 -3.30469e-09 -5.09891e-08 -6.70445e-10 -3.93803e-10 -3.39086e-09 -1.99407e-08
          -7.46791e-10 -1.20998e-09 -4.47616e-09 -1.7614e-08 -2.34988e-08 -4.34548e-09 -1.50518e-09 -2.31479e-09 -3.67837e-08 -2.28056e-09 -6.23649e-08 -4.59111e-10
          -2.61092e-10 -5.67672e-09 -1.55615e-08 -9.27453e-10 -1.19475e-09 -4.81426e-09 -1.09698e-08 -1.90966e-08 -8.89999e-09 -1.98143e-09 -2.27506e-09 -3.70396e-08
          -1.30035e-09 -7.29981e-08 -3.61834e-10 -4.67371e-10 -7.06874e-09 -1.08732e-08 -1.6913e-09 -1.41795e-09 -4.83864e-09 -6.20404e-09 -1.19541e-08 -1.04663e-08
          -1.61141e-09 -2.35718e-09 -3.76652e-08 -9.45599e-10 -7.97464e-08 -2.15755e-09 -5.69283e-10 -6.64389e-09 -7.29431e-09 -2.87413e-09 -1.87731e-09 -5.01709e-09
          -5.19996e-09 -1.00783e-08 -7.83249e-09 -1.41584e-09 -2.95157e-09 -3.62819e-08 -2.06027e-09 -8.17904e-08 -8.07634e-09 -9.29362e-10 -4.80203e-09 -4.60032e-09
          -5.47793e-09 -2.65319e-09 -4.8904e-09 -5.71078e-09 -1.17861e-08 -4.71906e-09 -1.08391e-09 -3.55254e-09 -3.27893e-08 -9.52155e-10 -7.57855e-08 -1.37328e-08
          -2.30685e-09 -3.13631e-09 -1.88297e-09 -6.06515e-09 -4.13131e-09 -4.25685e-09 -6.85774e-09 -1.11145e-08 -2.86525e-09 -1.09833e-09 -4.54052e-09 -3.19538e-08
          -6.143e-10 -6.77287e-08 -1.62243e-08 -4.2167e-09 -2.74039e-09 -1.40605e-09 -5.45835e-09 -5.95144e-09 -3.57227e-09 -8.80482e-09 -9.18795e-09 -1.68948e-09
          -1.19674e-09 -5.52723e-09 -3.14877e-08 -8.22716e-10 -5.81863e-08 -1.82663e-08 -7.1073e-09 -3.64249e-09 -3.32266e-09 -7.53214e-09 -9.34248e-09 -2.77966e-09
          -9.63996e-09 -7.60822e-09 -1.10508e-09 -1.24787e-09 -7.1794e-09 -2.75854e-08 -1.87e-09 -4.6807e-08 -1.85734e-08 -9.87174e-09 -2.62734e-09 -2.93401e-09
          -7.14709e-09 -1.44224e-08 -2.07529e-09 -9.50101e-09 -6.21247e-09 -9.17553e-10 -1.3072e-09 -1.08639e-08 -2.03877e-08 -2.7304e-09 -3.70574e-08 -2.02473e-08
          -1.35372e-08 -2.38456e-09 -2.54378e-09 -4.82796e-09 -1.80253e-08 -1.66389e-09 -8.71887e-09 -4.98824e-09 -1.22882e-09 -1.16938e-09 -1.37483e-08 -1.36616e-08
          -2.83321e-09 -2.71272e-08 -2.07227e-08 -2.07241e-08 -2.45869e-09 -2.69933e-09 -5.65274e-09 -2.08128e-08 -1.83951e-09 -7.25709e-09 -3.43819e-09 -1.01014e-09
          -9.65653e-10 -1.47392e-08 -8.48286e-09 -2.68767e-09 -2.03433e-08 -1.54034e-08 -3.44765e-08 -2.48854e-09 -2.52351e-09 -6.92587e-09 -2.208e-08 -2.31207e-09
          -5.68092e-09 -2.74004e-09 -1.17325e-09 -9.44412e-10 -1.41725e-08 -5.52552e-09 -2.62219e-09 -1.63538e-08 -7.67083e-09 -4.50891e-08 -2.73668e-09 -3.13362e-09
          -8.49602e-09 -2.33459e-08 -2.57756e-09 -3.74736e-09 -1.85732e-09 -1.30436e-09 -1.07511e-09 -1.11978e-08 -4.87442e-09 -2.91383e-09 -1.56266e-08 -4.8662e-09
          -4.73324e-08 -3.48167e-09 -4.75915e-09 -9.5213e-09 -2.5004e-08 -3.65429e-09 -1.84e-09 -9.97984e-10 -9.2021e-10 -9.89251e-10 -6.49644e-09 -4.47113e-09
          -3.14018e-09 -1.67612e-08 -4.70987e-09 -4.23868e-08 -5.77051e-09 -8.22364e-09 -1.31961e-08 -2.65001e-08 -4.61401e-09 -5.70046e-10 -4.23526e-10 -3.14537e-10
          -3.15529e-10 -1.80391e-09 -1.92487e-09 -1.57253e-09 -9.70465e-09 -4.87097e-09 -2.46573e-08 -1.05659e-08 -9.25592e-09 -1.05579e-08 -1.47373e-08 -2.47641e-09
        </DataArray>
        <DataArray type="Float32" Name="z[0]" NumberOfComponents="1" format="ascii">
          0.150578 0.150579 0.15058 0.150582 0.150582 0.150583 0.150584 0.150585 0.150585 0.150586 0.150587 0.150588
          0.150589 0.150591 0.150596 0.150581 0.150582 0.150583 0.150585 0.150586 0.150587 0.150587 0.150588 0.150588
          0.150589 0.15059 0.150591 0.150593 0.150595 0.150599 0.150584 0.150585 0.150587 0.150588 0.150589 0.15059
          0.150591 0.150594 0.150592 0.150593 0.150593 0.150595 0.150596 0.150598 0.150602 0.150588 0.150589 0.15059
          0.150591 0.157385 0.216618 0.264429 0.338015 0.150595 0.150596 0.150597 0.150598 0.150599 0.150601 0.150605
          0.150591 0.150592 0.187135 0.419846 0.423506 0.433222 0.412586 0.397355 0.150598 0.150599 0.1506 0.150601
          0.150602 0.150604 0.150609 0.150594 0.150595 0.192803 0.451321 0.465206 0.467669 0.452311 0.439432 0.150601
          0.150602 0.150603 0.150604 0.150605 0.150607 0.150612 0.150597 0.150598 0.197186 0.455805 0.474626 0.47963