<?xml version="1.0"?>
<VTKFile type="UnstructuredGrid" version="0.1" byte_order="LittleEndian">
  <UnstructuredGrid>
    <Piece NumberOfCells="360" NumberOfPoints="800">
      <CellData Scalars="pressure[0]">
        <DataArray type="Float32" Name="pressure[0]" NumberOfComponents="1" format="ascii">
          2.10462e+07 2.10607e+07 2.16799e+07 2.23251e+07 2.27006e+07 2.31216e+07 2.32529e+07 2.33017e+07 2.33609e+07 2.34264e+07 2.3609e+07 2.39119e+07
          2.41366e+07 2.47516e+07 2.54909e+07 2.10907e+07 2.11048e+07 2.17894e+07 2.247e+07 2.28808e+07 2.33011e+07 2.33973e+07 2.34354e+07 2.34962e+07
          2.357e+07 2.38236e+07 2.41304e+07 2.43129e+07 2.49461e+07 2.5657e+07 2.11394e+07 2.11631e+07 2.1868e+07 2.26174e+07 2.29849e+07 2.33788e+07
          2.3494e+07 2.35494e+07 2.36281e+07 2.37294e+07 2.40724e+07 2.44211e+07 2.46028e+07 2.51898e+07 2.58669e+07 2.12468e+07 2.12928e+07 2.17383e+07
          2.27527e+07 2.31169e+07 2.34981e+07 2.36024e+07 2.36528e+07 2.37731e+07 2.39301e+07 2.43886e+07 2.47926e+07 2.49717e+07 2.54796e+07 2.61278e+07
          2.13796e+07 2.14031e+07 1.98019e+07 2.28548e+07 2.33126e+07 2.37149e+07 2.37828e+07 2.38195e+07 2.40115e+07 2.43029e+07 2.477e+07 2.51521e+07
          2.5336e+07 2.58069e+07 2.63843e+07 2.1582e+07 2.1625e+07 2.2244e+07 2.33868e+07 2.37177e+07 2.39813e+07 2.40233e+07 2.40581e+07 2.43104e+07
          2.47468e+07 2.52254e+07 2.54755e+07 2.56735e+07 2.61365e+07 2.66717e+07 2.18426e+07 2.18932e+07 2.29617e+07 2.38773e+07 2.40892e+07 2.42685e+07
          2.43016e+07 2.43291e+07 2.45735e+07 2.51679e+07 2.56477e+07 2.57615e+07 2.59505e+07 2.64938e+07 2.7071e+07 2.22181e+07 2.2273e+07 2.33977e+07
          2.42352e+07 2.44283e+07 2.45563e+07 2.45932e+07 2.46616e+07 2.4939e+07 2.5534e+07 2.5932e+07 2.6022e+07 2.62747e+07 2.68642e+07 2.76218e+07
          2.27656e+07 2.28284e+07 2.37451e+07 2.45181e+07 2.47342e+07 2.48277e+07 2.49248e+07 2.5144e+07 2.54614e+07 2.59823e+07 2.62367e+07 2.62773e+07
          2.65368e+07 2.72875e+07 2.81721e+07 2.34312e+07 2.35335e+07 2.40519e+07 2.46279e+07 2.49868e+07 2.50626e+07 2.54426e+07 2.58583e+07 2.60954e+07
          2.64461e+07 2.6615e+07 2.66502e+07 2.69267e+07 2.77224e+07 2.85003e+07 2.42734e+07 2.43969e+07 2.464e+07 2.49677e+07 2.52218e+07 2.52557e+07
          2.58118e+07 2.64952e+07 2.66902e+07 2.68888e+07 2.70077e+07 2.70554e+07 2.7298e+07 2.80964e+07 2.87429e+07 2.50084e+07 2.50807e+07 2.5196e+07
          2.54121e+07 2.55922e+07 2.55962e+07 2.6058e+07 2.71366e+07 2.72469e+07 2.73439e+07 2.74164e+07 2.74742e+07 2.77219e+07 2.84816e+07 2.90056e+07
          2.55598e+07 2.56107e+07 2.56567e+07 2.59075e+07 2.60987e+07 2.61932e+07 2.69909e+07 2.77018e+07 2.77419e+07 2.78294e+07 2.78927e+07 2.79944e+07
          2.82286e+07 2.90534e+07 2.9766e+07 2.59906e+07 2.60454e+07 2.61334e+07 2.65215e+07 2.6805e+07 2.71297e+07 2.77821e+07 2.83226e+07 2.83698e+07
          2.83841e+07 2.83781e+07 2.85495e+07 2.9696e+07 3.04023e+07 3.02156e+07 2.63257e+07 2.6384e+07 2.67105e+07 2.72144e+07 2.80146e+07 2.81111e+07
          2.85255e+07 2.887e+07 2.89209e+07 2.89949e+07 2.91327e+07 2.99877e+07 3.07325e+07 3.09161e+07 3.0764e+07 2.69665e+07 2.69795e+07 2.74029e+07
          2.79591e+07 2.86256e+07 2.87105e+07 2.90167e+07 2.92231e+07 2.9275e+07 2.93559e+07 2.96777e+07 3.05133e+07 3.11393e+07 3.1485e+07 3.12862e+07
          2.78341e+07 2.78677e+07 2.80164e+07 2.89448e+07 2.9147e+07 2.91876e+07 2.93337e+07 2.94654e+07 2.95153e+07 2.95817e+07 3.00291e+07 3.10323e+07
          3.17064e+07 3.2042e+07 3.17663e+07 2.85357e+07 2.85931e+07 2.89714e+07 2.93122e+07 2.94626e+07 2.95075e+07 2.96163e+07 2.97098e+07 2.97621e+07
          2.98221e+07 3.03781e+07 3.14435e+07 3.21336e+07 3.24036e+07 3.22466e+07 2.8873e+07 2.89405e+07 2.91792e+07 2.95429e+07 2.97301e+07 2.97785e+07
          2.98701e+07 2.99489e+07 2.99964e+07 3.00539e+07 3.06673e+07 3.18482e+07 3.25563e+07 3.27534e+07 3.29214e+07 2.91391e+07 2.91986e+07 2.9417e+07
          2.97772e+07 2.99593e+07 3.00083e+07 3.00953e+07 3.01681e+07 3.0216e+07 3.02809e+07 3.08891e+07 3.21928e+07 3.29722e+07 3.31232e+07 3.35634e+07
          2.93587e+07 2.94276e+07 2.96003e+07 2.99325e+07 3.01602e+07 3.02149e+07 3.03076e+07 3.03838e+07 3.04506e+07 3.05351e+07 3.13988e+07 3.27947e+07
          3.33566e+07 3.35174e+07 3.40609e+07 2.9568e+07 2.96398e+07 2.97929e+07 3.01173e+07 3.03495e+07 3.04104e+07 3.05182e+07 3.06054e+07 3.06943e+07
          3.07933e+07 3.19623e+07 3.34135e+07 3.3756e+07 3.39557e+07 3.45454e+07 2.97563e+07 2.98212e+07 3.00078e+07 3.03504e+07 3.05387e+07 3.061e+07
          3.07375e+07 3.08392e+07 3.09561e+07 3.10815e+07 3.24372e+07 3.3921e+07 3.42133e+07 3.44391e+07 3.48873e+07 2.99261e+07 2.99874e+07 3.01498e+07
          3.04934e+07 3.0737e+07 3.08103e+07 3.09546e+07 3.10736e+07 3.12178e+07 3.13895e+07 3.2964e+07 3.43596e+07 3.46851e+07 3.4888e+07 3.51872e+07
        </DataArray>
        <DataArray type="Float32" Name="pressure[1]" NumberOfComponents="1" format="ascii">
          2.10462e+07 2.10607e+07 2.16799e+07 2.23251e+07 2.27006e+07 2.31216e+07 2.32529e+07 2.33017e+07 2.33609e+07 2.34264e+07 2.3609e+07 2.39119e+07
          2.41366e+07 2.47516e+07 2.54909e+07 2.10907e+07 2.11048e+07 2.17894e+07 2.247e+07 2.28808e+07 2.33011e+07 2.33973e+07 2.34354e+07 2.34962e+07
          2.357e+07 2.38236e+07 2.41304e+07 2.43129e+07 2.49461e+07 2.5657e+07 2.11394e+07 2.11631e+07 2.1868e+07 2.26174e+07 2.29849e+07 2.33788e+07
          2.3494e+07 2.35494e+07 2.36281e+07 2.37294e+07 2.40724e+07 2.44211e+07 2.46028e+07 2.51898e+07 2.58669e+07 2.12468e+07 2.12928e+07 2.17383e+07
          2.27527e+07 2.31169e+07 2.34981e+07 2.36024e+07 2.36528e+07 2.37731e+07 2.39301e+07 2.43886e+07 2.47926e+07 2.49717e+07 2.54796e+07 2.61278e+07
          2.13796e+07 2.14031e+07 1.98019e+07 2.28548e+07 2.33126e+07 2.37149e+07 2.37828e+07 2.38195e+07 2.40115e+07 2.43029e+07 2.477e+07 2.51521e+07
          2.5336e+07 2.58069e+07 2.63843e+07 2.1582e+07 2.1625e+07 2.2244e+07 2.33868e+07 2.37177e+07 2.39813e+07 2.40233e+07 2.40581e+07 2.43104e+07
          2.47468e+07 2.52254e+07 2.54755e+07 2.56735e+07 2.61365e+07 2.66717e+07 2.18426e+07 2.18932e+07 2.29617e+07 2.38773e+07 2.40892e+07 2.42685e+07
          2.43016e+07 2.43291e+07 2.45735e+07 2.51679e+07 2.56477e+07 2.57615e+07 2.59505e+07 2.64938e+07 2.7071e+07 2.22181e+07 2.2273e+07 2.33977e+07
          2.42352e+07 2.44283e+07 2.45563e+07 2.45932e+07 2.46616e+07 2.4939e+07 2.5534e+07 2.5932e+07 2.6022e+07 2.62747e+07 2.68642e+07 2.76218e+07
          2.27656e+07 2.28284e+07 2.37451e+07 2.45181e+07 2.47342e+07 2.48277e+07 2.49248e+07 2.5144e+07 2.54614e+07 2.59823e+07 2.62367e+07 2.62773e+07
          2.65368e+07 2.72875e+07 2.81721e+07 2.34312e+07 2.35335e+07 2.40519e+07 2.46279e+07 2.49868e+07 2.50626e+07 2.54426e+07 2.58583e+07 2.60954e+07
          2.64461e+07 2.6615e+07 2.66502e+07 2.69267e+07 2.77224e+07 2.85003e+07 2.42734e+07 2.43969e+07 2.464e+07 2.49677e+07 2.52218e+07 2.52557e+07
          2.58118e+07 2.64952e+07 2.66902e+07 2.68888e+07 2.70077e+07 2.70554e+07 2.7298e+07 2.80964e+07 2.87429e+07 2.50084e+07 2.50807e+07 2.5196e+07
          2.54121e+07 2.55922e+07 2.55962e+07 2.6058e+07 2.71366e+07 2.72469e+07 2.73439e+07 2.74164e+07 2.74742e+07 2.77219e+07 2.84816e+07 2.90056e+07
          2.55598e+07 2.56107e+07 2.56567e+07 2.59075e+07 2.60987e+07 2.61932e+07 2.69909e+07 2.77018e+07 2.77419e+07 2.78294e+07 2.78927e+07 2.79944e+07
          2.82286e+07 2.90534e+07 2.9766e+07 2.59906e+07 2.60454e+07 2.61334e+07 2.65215e+07 2.6805e+07 2.71297e+07 2.77821e+07 2.83226e+07 2.83698e+07
          2.83841e+07 2.83781e+07 2.85495e+07 2.9696e+07 3.04023e+07 3.02156e+07 2.63257e+07 2.6384e+07 2.67105e+07 2.72144e+07 2.80146e+07 2.81111e+07
          2.85255e+07 2.887e+07 2.89209e+07 2.89949e+07 2.91327e+07 2.99877e+07 3.07325e+07 3.09161e+07 3.0764e+07 2.69665e+07 2.69795e+07 2.74029e+07
          2.79591e+07 2.86256e+07 2.87105e+07 2.90167e+07 2.92231e+07 2.9275e+07 2.93559e+07 2.96777e+07 3.05133e+07 3.11393e+07 3.1485e+07 3.12862e+07
          2.78341e+07 2.78677e+07 2.80164e+07 2.89448e+07 2.9147e+07 2.91876e+07 2.93337e+07 2.94654e+07 2.95153e+07 2.95817e+07 3.00291e+07 3.10323e+07
          3.17064e+07 3.2042e+07 3.17663e+07 2.85357e+07 2.85931e+07 2.89714e+07 2.93122e+07 2.94626e+07 2.95075e+07 2.96163e+07 2.97098e+07 2.97621e+07
          2.98221e+07 3.03781e+07 3.14435e+07 3.21336e+07 3.24036e+07 3.22466e+07 2.8873e+07 2.89405e+07 2.91792e+07 2.95429e+07 2.97301e+07 2.97785e+07
          2.98701e+07 2.99489e+07 2.99964e+07 3.00539e+07 3.06673e+07 3.18482e+07 3.25563e+07 3.27534e+07 3.29214e+07 2.91391e+07 2.91986e+07 2.9417e+07
          2.97772e+07 2.99593e+07 3.00083e+07 3.00953e+07 3.01681e+07 3.0216e+07 3.02809e+07 3.08891e+07 3.21928e+07 3.29722e+07 3.31232e+07 3.35634e+07
          2.93587e+07 2.94276e+07 2.96003e+07 2.99325e+07 3.01602e+07 3.02149e+07 3.03076e+07 3.03838e+07 3.04506e+07 3.05351e+07 3.13988e+07 3.27947e+07
          3.33566e+07 3.35174e+07 3.40609e+07 2.9568e+07 2.96398e+07 2.97929e+07 3.01173e+07 3.03495e+07 3.04104e+07 3.05182e+07 3.06054e+07 3.06943e+07
          3.07933e+07 3.19623e+07 3.34135e+07 3.3756e+07 3.39557e+07 3.45454e+07 2.97563e+07 2.98212e+07 3.00078e+07 3.03504e+07 3.05387e+07 3.061e+07
          3.07375e+07 3.08392e+07 3.09561e+07 3.10815e+07 3.24372e+07 3.3921e+07 3.42133e+07 3.44391e+07 3.48873e+07 2.99261e+07 2.99874e+07 3.01498e+07
          3.04934e+07 3.0737e+07 3.08103e+07 3.09546e+07 3.10736e+07 3.12178e+07 3.13895e+07 3.2964e+07 3.43596e+07 3.46851e+07 3.4888e+07 3.51872e+07
        </DataArray>
        <DataArray type="Float32" Name="pressure[2]" NumberOfComponents="1" format="ascii">
          2.10462e+07 2.10607e+07 2.16799e+07 2.23251e+07 2.27006e+07 2.31216e+07 2.32529e+07 2.33017e+07 2.33609e+07 2.34264e+07 2.3609e+07 2.39119e+07
          2.41366e+07 2.47516e+07 2.54909e+07 2.10907e+07 2.11048e+07 2.17894e+07 2.247e+07 2.28808e+07 2.33011e+07 2.33973e+07 2.34354e+07 2.34962e+07
          2.357e+07 2.38236e+07 2.41304e+07 2.43129e+07 2.49461e+07 2.5657e+07 2.11394e+07 2.11631e+07 2.1868e+07 2.26174e+07 2.29849e+07 2.33788e+07
          2.3494e+07 2.35494e+07 2.36281e+07 2.37294e+07 2.40724e+07 2.44211e+07 2.46028e+07 2.51898e+07 2.58669e+07 2.12468e+07 2.12928e+07 2.17383e+07
          2.27527e+07 2.31169e+07 2.34981e+07 2.36024e+07 2.36528e+07 2.37731e+07 2.39301e+07 2.43886e+07 2.47926e+07 2.49717e+07 2.54796e+07 2.61278e+07
          2.13796e+07 2.14031e+07 1.98019e+07 2.28548e+07 2.33126e+07 2.37149e+07 2.37828e+07 2.38195e+07 2.40115e+07 2.43029e+07 2.477e+07 2.51521e+07
          2.5336e+07 2.58069e+07 2.63843e+07 2.1582e+07 2.1625e+07 2.2244e+07 2.33868e+07 2.37177e+07 2.39813e+07 2.40233e+07 2.40581e+07 2.43104e+07
          2.47468e+07 2.52254e+07 2.54755e+07 2.56735e+07 2.61365e+07 2.66717e+07 2.18426e+07 2.18932e+07 2.29617e+07 2.38773e+07 2.40892e+07 2.42685e+07
          2.43016e+07 2.43291e+07 2.45735e+07 2.51679e+07 2.56477e+07 2.57615e+07 2.59505e+07 2.64938e+07 2.7071e+07 2.22181e+07 2.2273e+07 2.33977e+07
          2.42352e+07 2.44283e+07 2.45563e+07 2.45932e+07 2.46616e+07 2.4939e+07 2.5534e+07 2.5932e+07 2.6022e+07 2.62747e+07 2.68642e+07 2.76218e+07
          2.27656e+07 2.28284e+07 2.37451e+07 2.45181e+07 2.47342e+07 2.48277e+07 2.49248e+07 2.5144e+07 2.54614e+07 2.59823e+07 2.62367e+07 2.62773e+07
          2.65368e+07 2.72875e+07 2.81721e+07 2.34312e+07 2.35335e+07 2.40519e+07 2.46279e+07 2.49868e+07 2.50626e+07 2.54426e+07 2.58583e+07 2.60954e+07
          2.64461e+07 2.6615e+07 2.66502e+07 2.69267e+07 2.77224e+07 2.85003e+07 2.42734e+07 2.43969e+07 2.464e+07 2.49677e+07 2.52218e+07 2.52557e+07
          2.58118e+07 2.64952e+07 2.66902e+07 2.68888e+07 2.70077e+07 2.70554e+07 2.7298e+07 2.80964e+07 2.87429e+07 2.50084e+07 2.50807e+07 2.5196e+07
          2.54121e+07 2.55922e+07 2.55962e+07 2.6058e+07 2.71366e+07 2.72469e+07 2.73439e+07 2.74164e+07 2.74742e+07 2.77219e+07 2.84816e+07 2.90056e+07
          2.55598e+07 2.56107e+07 2.56567e+07 2.59075e+07 2.60987e+07 2.61932e+07 2.69909e+07 2.77018e+07 2.77419e+07 2.78294e+07 2.78927e+07 2.79944e+07
          2.82286e+07 2.90534e+07 2.9766e+07 2.59906e+07 2.60454e+07 2.61334e+07 2.65215e+07 2.6805e+07 2.71297e+07 2.77821e+07 2.83226e+07 2.83698e+07
          2.83841e+07 2.83781e+07 2.85495e+07 2.9696e+07 3.04023e+07 3.02156e+07 2.63257e+07 2.6384e+07 2.67105e+07 2.72144e+07 2.80146e+07 2.81111e+07
          2.85255e+07 2.887e+07 2.89209e+07 2.89949e+07 2.91327e+07 2.99877e+07 3.07325e+07 3.09161e+07 3.0764e+07 2.69665e+07 2.69795e+07 2.74029e+07
          2.79591e+07 2.86256e+07 2.87105e+07 2.90167e+07 2.92231e+07 2.9275e+07 2.93559e+07 2.96777e+07 3.05133e+07 3.11393e+07 3.1485e+07 3.12862e+07
          2.78341e+07 2.78677e+07 2.80164e+07 2.89448e+07 2.9147e+07 2.91876e+07 2.93337e+07 2.94654e+07 2.95153e+07 2.95817e+07 3.00291e+07 3.10323e+07
          3.17064e+07 3.2042e+07 3.17663e+07 2.85357e+07 2.85931e+07 2.89714e+07 2.93122e+07 2.94626e+07 2.95075e+07 2.96163e+07 2.97098e+07 2.97621e+07
          2.98221e+07 3.03781e+07 3.14435e+07 3.21336e+07 3.24036e+07 3.22466e+07 2.8873e+07 2.89405e+07 2.91792e+07 2.95429e+07 2.97301e+07 2.97785e+07
          2.98701e+07 2.99489e+07 2.99964e+07 3.00539e+07 3.06673e+07 3.18482e+07 3.25563e+07 3.27534e+07 3.29214e+07 2.91391e+07 2.91986e+07 2.9417e+07
          2.97772e+07 2.99593e+07 3.00083e+07 3.00953e+07 3.01681e+07 3.0216e+07 3.02809e+07 3.08891e+07 3.21928e+07 3.29722e+07 3.31232e+07 3.35634e+07
          2.93587e+07 2.94276e+07 2.96003e+07 2.99325e+07 3.01602e+07 3.02149e+07 3.03076e+07 3.03838e+07 3.04506e+07 3.05351e+07 3.13988e+07 3.27947e+07
          3.33566e+07 3.35174e+07 3.40609e+07 2.9568e+07 2.96398e+07 2.97929e+07 3.01173e+07 3.03495e+07 3.04104e+07 3.05182e+07 3.06054e+07 3.06943e+07
          3.07933e+07 3.19623e+07 3.34135e+07 3.3756e+07 3.39557e+07 3.45454e+07 2.97563e+07 2.98212e+07 3.00078e+07 3.03504e+07 3.05387e+07 3.061e+07
          3.07375e+07 3.08392e+07 3.09561e+07 3.10815e+07 3.24372e+07 3.3921e+07 3.42133e+07 3.44391e+07 3.48873e+07 2.99261e+07 2.99874e+07 3.01498e+07
          3.04934e+07 3.0737e+07 3.08103e+07 3.09546e+07 3.10736e+07 3.12178e+07 3.13895e+07 3.2964e+07 3.43596e+07 3.46851e+07 3.4888e+07 3.51872e+07
        </DataArray>
        <DataArray type="Float32" Name="velocity[0]" NumberOfComponents="1" format="ascii">
          -2.7233e-09 3.93603e-08 1.86707e-10 -3.69735e-09 -3.71792e-10 -1.42899e-09 -5.51056e-10 1.14241e-09 1.78198e-09 -4.17865e-10 -1.85889e-09 -2.58653e-09
          -1.78675e-09 -5.86596e-10 -2.61505e-09 -3.11971e-08 1.42814e-07 4.62625e-10 -1.72544e-08 -5.09871e-11 1.55723e-09 7.55704e-09 5.18308e-09 3.86754e-09
          -2.50217e-09 -3.91713e-09 -1.1152e-08 -6.83258e-09 -1.77471e-09 -6.93352e-09 -3.45881e-08 1.87329e-07 1.15629e-09 2.86337e-09 4.5798e-10 4.54748e-09
          1.34386e-08 9.6541e-09 1.7461e-09 -6.12056e-09 -4.69301e-09 -2.81243e-08 -9.7274e-09 -3.75538e-09 -1.03862e-08 -1.21076e-08 1.73607e-07 7.09557e-09
          8.19177e-08 -1.50394e-09 -8.37068e-09 -5.27899e-09 -9.30213e-11 -4.37457e-09 -1.32451e-08 -5.99265e-09 -4.85887e-08 -6.93539e-09 -5.47478e-09 -1.41639e-08
          -9.187e-08 -3.4566e-08 -2.79715e-10 -1.25142e-07 -1.44509e-08 -5.50394e-08 -6.17616e-08 -4.46104e-08 -6.9941e-09 -1.35221e-08 -8.42808e-09 -8.22017e-08
          -3.53053e-09 -5.01536e-09 -1.74493e-08 -1.80912e-07 -2.25734e-07 -7.95217e-09 -2.66247e-07 -3.25749e-08 -1.73844e-07 -1.01843e-07 -1.1436e-07 -4.61152e-09
          -5.99261e-09 -1.27934e-08 -1.19522e-07 -2.07761e-09 -4.0044e-09 -1.965e-08 -1.8182e-07 -1.95902e-07 -2.41583e-09 -8.92529e-08 -3.27533e-08 -3.31617e-07
          -9.51176e-08 -1.36815e-07 -4.12852e-09 -2.72572e-09 -1.59439e-08 -1.46186e-07 -1.81614e-09 -3.9534e-09 -2.11694e-08 -1.65331e-07 -1.79464e-07 -2.02424e-09
          -1.63991e-08 -2.1123e-08 -4.13097e-07 -5.64484e-08 -1.64037e-07 -5.21291e-09 -2.47761e-09 -1.85622e-08 -1.66475e-07 -1.53155e-09 -4.09119e-09 -2.2882e-08
          -1.49121e-07 -1.61482e-07 -2.39529e-09 -2.50332e-09 -1.35692e-08 -4.01073e-07 -1.50888e-08 -2.64812e-07 -5.26928e-09 -3.0484e-09 -3.2249e-08 -1.64176e-07
          -1.52196e-09 -3.75302e-09 -2.51368e-08 -1.21848e-07 -1.48515e-07 -9.42057e-09 -6.59774e-10 -1.05046e-08 -3.62344e-07 -3.87846e-09 -3.71035e-07 -5.5582e-09
          -3.55627e-09 -5.58103e-08 -1.41802e-07 -2.52744e-09 -3.28288e-09 -2.73581e-08 -9.03753e-08 -1.41768e-07 -2.06636e-08 -1.6569e-09 -2.11694e-08 -3.1668e-07
          -1.20486e-09 -4.36033e-07 -1.18589e-08 -5.15387e-09 -7.20323e-08 -1.1702e-07 -6.4748e-09 -3.85512e-09 -2.92995e-08 -7.2139e-08 -1.36569e-07 -2.80001e-08
          -1.60225e-09 -4.28099e-08 -2.65729e-07 -1.53113e-09 -4.18147e-07 -4.20816e-08 -9.80487e-09 -7.65902e-08 -8.49564e-08 -1.97081e-08 -7.09001e-09 -3.12297e-08
          -6.47756e-08 -1.37414e-07 -2.53082e-08 -3.10016e-09 -5.51443e-08 -2.19389e-07 -2.15912e-09 -4.15072e-07 -6.44163e-08 -2.05682e-08 -6.96122e-08 -4.1969e-08
          -3.34583e-08 -1.81297e-08 -3.32417e-08 -5.99654e-08 -1.42487e-07 -1.55922e-08 -6.36376e-09 -4.488e-08 -2.09788e-07 -1.93529e-09 -4.57111e-07 -8.17214e-08
          -2.59201e-08 -4.12899e-08 -1.2846e-08 -3.69922e-08 -3.45363e-08 -3.30733e-08 -4.92619e-08 -1.39411e-07 -1.09816e-08 -1.05328e-08 -3.35427e-08 -2.27371e-07
          -1.54314e-09 -4.54378e-07 -1.03902e-07 -2.65981e-08 -1.82138e-08 -5.56827e-09 -3.6688e-08 -4.9535e-08 -3.00274e-08 -5.35072e-08 -1.00913e-07 -1.07865e-08
          -1.08193e-08 -3.99065e-08 -2.38806e-07 -1.94757e-09 -3.96257e-07 -1.08849e-07 -3.32148e-08 -1.03732e-08 -6.15842e-09 -4.09351e-08 -7.0131e-08 -2.55174e-08
          -6.67076e-08 -5.76244e-08 -8.62395e-09 -8.52506e-09 -5.8704e-08 -2.17733e-07 -3.59891e-09 -3.1789e-07 -1.11298e-07 -5.14724e-08 -3.99671e-09 -5.65117e-09
          -3.30553e-08 -1.0261e-07 -2.03849e-08 -6.74775e-08 -4.31522e-08 -3.7638e-09 -5.04034e-09 -8.53857e-08 -1.56736e-07 -5.33589e-09 -2.47129e-07 -1.22792e-07
          -8.05463e-08 -2.79534e-09 -3.77223e-09 -2.12859e-08 -1.33377e-07 -1.59736e-08 -6.15207e-08 -3.05908e-08 -1.92647e-09 -1.69116e-09 -1.03859e-07 -9.85063e-08
          -5.59196e-09 -1.80054e-07 -1.24873e-07 -1.29385e-07 -1.62825e-09 -3.10029e-09 -2.77221e-08 -1.52097e-07 -1.40304e-08 -5.13541e-08 -2.06537e-08 -1.71836e-09
          -7.36502e-10 -1.09138e-07 -5.53365e-08 -4.64099e-09 -1.32856e-07 -8.16422e-08 -2.27443e-07 -2.87344e-09 -4.40892e-09 -4.11926e-08 -1.61128e-07 -1.51427e-08
          -3.93388e-08 -1.38954e-08 -1.5139e-09 -1.86562e-10 -1.00612e-07 -2.86387e-08 -3.96229e-09 -1.0507e-07 -3.44382e-08 -3.17447e-07 -4.51967e-09 -8.12427e-09
          -5.01131e-08 -1.68267e-07 -1.74388e-08 -2.47601e-08 -7.0899e-09 -2.36517e-09 -9.11799e-10 -7.40088e-08 -1.9363e-08 -3.88243e-09 -1.00109e-07 -1.87943e-08
          -3.36503e-07 -4.12756e-09 -1.56174e-08 -5.4843e-08 -1.75558e-07 -2.16683e-08 -1.15597e-08 -2.83408e-09 -1.0639e-09 -6.01617e-10 -3.68553e-08 -1.44341e-08
          -3.19704e-09 -1.06336e-07 -1.52051e-08 -2.90374e-07 -5.73016e-09 -2.69313e-08 -7.18658e-08 -1.82838e-07 -2.83158e-08 -3.06214e-09 -6.37814e-10 2.35448e-10
          8.78637e-11 -8.68694e-09 -5.50615e-09 -1.17241e-09 -5.43219e-08 -7.09179e-09 -1.25628e-07 -3.7808e-09 -1.63381e-08 -4.28987e-08 -9.39516e-08 -1.5903e-08
        </DataArray>
        <DataArray type="Float32" Name="velocity[1]" NumberOfComponents="1" format="ascii">
          4.23233e-25 6.21007e-24 8.45712e-26 -5.74612e-25 5.77808e-26 0 8.56406e-26 -1.44738e-25 4.40507e-26 5.47755e-24 -3.54518e-24 3.38243e-26
          2.32934e-24 -9.22519e-25 4.06384e-25 4.00193e-24 9.88301e-24 7.65865e-26 -1.53232e-24 -1.78613e-25 7.27214e-24 1.17927e-24 3.18694e-25 -6.89389e-24
          -1.27068e-25 0 -3.22822e-26 3.45445e-26 7.20774e-29 2.64732e-25 -3.47493e-24 -1.30269e-23 -1.76021e-24 4.65886e-24 -1.68151e-25 0
          3.69364e-25 -2.8464e-25 -3.76878e-25 0 6.82961e-24 -1.0723e-23 0 1.08736e-24 -2.7183e-25 -7.82358e-27 1.21131e-23 -1.59134e-24
          -7.94911e-24 4.26243e-25 1.00444e-23 -2.07119e-23 2.49484e-23 -3.72031e-24 1.07373e-24 3.36388e-24 -4.41382e-24 3.00301e-24 -1.26088e-24 9.4573e-25
          -1.0105e-25 -6.65248e-23 6.19624e-24 1.14865e-23 -4.15764e-25 -5.7134e-24 1.17912e-25 -9.7238e-26 2.32762e-26 -6.28163e-24 4.08845e-24 -7.51026e-24
          -2.99033e-27 1.24579e-25 -1.45358e-24 -1.36929e-25 7.10532e-24 -6.7576e-25 7.98099e-24 1.79923e-25 -1.33797e-23 0 -1.29896e-25 6.39406e-26
          3.80671e-25 -4.12044e-25 5.57119e-24 -1.37655e-24 8.14228e-25 1.45359e-24 -1.11764e-24 1.31842e-24 0 9.88741e-24 -9.48267e-25 -2.92791e-23
          -9.46781e-26 -8.9994e-26 -3.31853e-24 1.00698e-27 -2.86812e-29 -1.63013e-27 3.30123e-26 1.6779e-30 -1.60025e-24 -1.85678e-25 1.32214e-23 1.45679e-24
          3.31145e-24 -6.12277e-26 3.05763e-23 -5.91692e-26 -5.2848e-26 -8.20428e-26 -5.94452e-26 -3.77773e-24 -1.25797e-23 1.85052e-28 -3.49769e-25 1.86641e-24
          -1.43461e-24 -9.44191e-24 -9.43274e-26 -1.85288e-24 -3.79707e-25 6.31751e-24 0 0 -9.56824e-25 -2.67922e-28 1.13151e-24 2.83012e-24
          2.32669e-28 4.91003e-26 1.73739e-28 -1.09681e-23 9.8117e-25 1.29004e-24 -1.27682e-25 -1.93527e-24 5.22208e-24 -9.49844e-24 7.27148e-24 9.13064e-25
          -4.98309e-26 -8.33551e-25 3.03641e-24 -7.96163e-25 0 -2.04015e-24 4.47569e-24 1.33278e-25 6.96513e-25 -1.41049e-25 2.99574e-24 -4.90318e-27
          -6.42903e-24 5.67187e-24 9.02591e-25 1.98135e-25 5.04822e-25 8.35971e-24 1.99896e-24 -2.59996e-25 1.29998e-25 -5.13447e-24 9.24615e-25 -4.46429e-25
          -3.49799e-26 7.90536e-25 -1.87379e-23 1.15722e-25 -5.60955e-24 -4.23713e-24 -5.24574e-25 -5.49282e-25 3.71872e-24 -1.82387e-24 1.08518e-24 -1.69673e-25
          4.93291e-24 1.03897e-23 0 -2.15802e-25 2.65975e-25 3.3771e-24 -1.83774e-26 5.13691e-24 3.23365e-25 1.81552e-28 -4.8411e-24 -1.51767e-24
          6.12354e-25 -7.43959e-25 -4.55477e-28 -5.45518e-25 1.50906e-27 9.47269e-25 -5.82143e-25 5.00115e-28 1.1789e-23 -1.62528e-26 1.40134e-24 2.53363e-24
          3.46491e-24 4.84134e-24 3.42613e-24 -5.05478e-24 4.19288e-28 -2.48514e-24 -4.38563e-24 -1.04891e-23 -6.36439e-28 6.40202e-25 1.00996e-25 1.00652e-27
          -4.42825e-26 -5.60884e-24 1.68358e-24 0 0 4.78752e-25 4.10215e-24 -4.97194e-25 4.66702e-24 0 5.29908e-24 0
          -6.84722e-25 8.8853e-25 6.19946e-28 1.07136e-25 -7.20974e-24 2.24441e-28 1.7405e-28 -6.3707e-29 4.3297e-24 3.89732e-30 -1.30093e-24 -2.18081e-24
          -9.9318e-28 1.42956e-24 1.36241e-27 4.36292e-26 2.03373e-24 -1.10583e-23 0 -1.14039e-23 0 -2.05574e-28 3.18698e-24 -3.95271e-24
          -1.86769e-24 1.94371e-28 1.38356e-24 0 3.76353e-24 0 6.406e-25 2.0517e-24 5.35177e-24 1.19952e-25 -6.02694e-24 -5.48307e-24
          -2.28748e-24 1.8727e-25 5.86999e-26 4.886e-29 -1.82676e-24 -1.09892e-24 4.39472e-24 -2.16433e-24 2.40103e-24 -2.00189e-24 7.57991e-25 9.53816e-24
          -8.01431e-26 -4.3972e-24 1.04108e-23 5.71964e-24 -3.44182e-24 7.51583e-26 9.61776e-25 -4.45753e-28 1.08157e-24 7.13165e-28 -3.96875e-24 8.59865e-25
          -1.83423e-24 1.25269e-25 -2.94288e-24 -1.34816e-25 -5.87648e-24 -5.30395e-24 9.93738e-24 2.81445e-25 3.68771e-24 1.13164e-24 -3.80771e-25 -8.91342e-25
          -1.05891e-24 6.38457e-25 0 -3.92174e-26 -1.38796e-24 4.77445e-24 -8.39306e-24 8.39403e-24 -6.004e-24 9.25423e-28 0 0
          2.54771e-25 -7.20174e-28 1.43841e-24 -1.20679e-24 -1.27021e-24 1.17113e-24 -1.96932e-24 -9.68286e-25 -1.3868e-24 2.48949e-26 6.0916e-25 -3.92288e-24
          1.4054e-23 -2.68118e-25 -6.73068e-24 4.79881e-25 9.82293e-25 -4.33902e-29 -8.44006e-25 -7.30788e-28 -7.72903e-28 1.19126e-25 -3.0281e-24 5.32509e-25
          -1.32445e-25 1.06954e-23 -4.43547e-24 0 -2.84626e-25 -8.92532e-25 6.84777e-24 -7.88144e-25 0 -4.76632e-25 -7.89847e-28 -3.89332e-25
          6.59765e-25 -1.34948e-24 -2.25215e-24 -3.65469e-25 -2.82054e-24 1.10215e-24 -3.05499e-23 0 3.05666e-23 -2.2438e-23 1.85518e-23 4.66469e-25
        </DataArray>
        <DataArray type="Float32" Name="velocity[2]" NumberOfComponents="1" format="ascii">
          -2.90916e-10 5.38103e-09 -3.43369e-09 -3.87064e-09 -3.01824e-09 -3.0695e-09 -2.80406e-09 -2.50577e-09 -2.50774e-09 -2.95414e-09 -3.03888e-09 -2.861e-09
          -2.41281e-09 -1.95459e-09 -1.33286e-09 -3.77106e-09 2.54633e-08 -2.78263e-09 -5.34796e-09 -1.8032e-09 -1.72063e-09 -1.07249e-09 -1.78413e-09 -2.089e-09
          -3.13044e-09 -3.2652e-09 -4.13802e-09 -2.77306e-09 -1.54877e-09 -1.79036e-09 -7.57894e-09 3.10617e-08 -8.0124e-10 -1.9854e-09 -3.82764e-09 -2.97545e-09
          -1.23536e-09 -1.85298e-09 -3.11816e-09 -4.24218e-09 -3.83461e-09 -7.23347e-09 -3.32725e-09 -2.05805e-09 -2.41448e-09 -2.12985e-09 3.03192e-08 2.41164e-10
          1.05963e-08 -6.38353e-09 -6.89351e-09 -5.34785e-09 -3.68429e-09 -3.88368e-09 -4.97311e-09 -3.40084e-09 -1.02702e-08 -2.5225e-09 -2.37741e-09 -3.1732e-09
          -1.08308e-08 4.9578e-10 -1.06068e-09 -3.0229e-08 -1.37389e-08 -1.85505e-08 -1.69559e-08 -1.19282e-08 -4.43006e-09 -5.78831e-09 -4.9457e-09 -1.63887e-08
          -1.12925e-09 -1.58853e-09 -3.49578e-09 -3.12315e-08 -3.95548e-08 -2.63535e-09 -5.42182e-08 -1.82244e-08 -3.8742e-08 -2.2077e-08 -2.32782e-08 -2.98052e-09
          -3.37357e-09 -4.50276e-09 -2.23626e-08 -8.93079e-10 -1.3e-09 -3.77953e-09 -3.25403e-08 -3.5776e-08 -1.93226e-09 -2.03025e-08 -1.37219e-08 -6.32152e-08
          -1.81317e-08 -2.59956e-08 -2.89241e-09 -2.60356e-09 -4.92792e-09 -2.70526e-08 -7.71634e-10 -1.10763e-09 -3.92477e-09 -2.96229e-08 -3.29716e-08 -2.02582e-09
          -5.03732e-09 -6.62894e-09 -7.55864e-08 -1.3153e-08 -3.18675e-08 -2.73485e-09 -2.22139e-09 -4.90809e-09 -3.04473e-08 -9.86922e-10 -1.47536e-09 -4.4137e-09
          -2.67375e-08 -2.97032e-08 -1.94253e-09 -2.0384e-09 -4.24904e-09 -7.35818e-08 -6.65735e-09 -4.93381e-08 -2.00854e-09 -1.62185e-09 -6.03011e-09 -2.91025e-08
          -9.4017e-10 -1.35357e-09 -4.80388e-09 -2.26939e-08 -2.87335e-08 -3.71786e-09 -1.48012e-09 -3.16081e-09 -6.6127e-08 -3.88335e-09 -6.74377e-08 -1.71473e-09
          -1.31929e-09 -9.76095e-09 -2.49604e-08 -1.16313e-09 -1.28773e-09 -5.19147e-09 -1.67061e-08 -2.66104e-08 -4.91758e-09 -1.16416e-09 -4.02479e-09 -5.67735e-08
          -2.38466e-09 -7.85842e-08 -2.95301e-09 -1.37124e-09 -1.28454e-08 -2.12011e-08 -2.17032e-09 -1.35852e-09 -5.4453e-09 -1.31205e-08 -2.50303e-08 -5.78663e-09
          -8.78005e-10 -7.57245e-09 -4.74665e-08 -2.0124e-09 -7.64188e-08 -9.60335e-09 -2.31182e-09 -1.39322e-08 -1.66192e-08 -5.69293e-09 -2.39617e-09 -5.87076e-09
          -1.1509e-08 -2.4216e-08 -4.74001e-09 -1.23479e-09 -1.02499e-08 -4.013e-08 -2.83889e-09 -7.47708e-08 -1.2182e-08 -4.27957e-09 -1.3095e-08 -1.00295e-08
          -9.61114e-09 -5.22457e-09 -6.16385e-09 -1.08055e-08 -2.5521e-08 -3.44357e-09 -2.08347e-09 -9.41932e-09 -3.85675e-08 -1.36164e-09 -8.13716e-08 -1.37868e-08
          -2.86744e-09 -6.98959e-09 -3.70686e-09 -8.39236e-09 -6.67483e-09 -5.46838e-09 -9.16552e-09 -2.57602e-08 -3.37119e-09 -3.21513e-09 -7.1231e-09 -4.10098e-08
          -9.3952e-10 -8.11095e-08 -1.94537e-08 -5.5464e-09 -4.09026e-09 -2.02685e-09 -7.54274e-09 -8.61376e-09 -4.64148e-09 -8.67314e-09 -1.79759e-08 -3.76842e-09
          -3.85431e-09 -8.77942e-09 -4.32704e-08 -1.20888e-09 -7.19575e-08 -2.2386e-08 -8.76408e-09 -4.94619e-09 -4.49789e-09 -1.0281e-08 -1.29073e-08 -3.64785e-09
          -1.16458e-08 -1.0387e-08 -2.41601e-09 -2.62272e-09 -1.07879e-08 -3.93926e-08 -2.86842e-09 -5.91154e-08 -2.35212e-08 -1.2384e-08 -3.47932e-09 -3.91019e-09
          -9.64491e-09 -1.95415e-08 -2.73384e-09 -1.1965e-08 -8.00642e-09 -1.53822e-09 -2.13645e-09 -1.57337e-08 -2.91715e-08 -4.05039e-09 -4.76841e-08 -2.61307e-08
          -1.74215e-08 -3.1609e-09 -3.38263e-09 -6.46571e-09 -2.42556e-08 -2.20552e-09 -1.11774e-08 -6.42003e-09 -1.67901e-09 -1.59241e-09 -1.93557e-08 -1.92833e-08
          -4.04475e-09 -3.55765e-08 -2.71469e-08 -2.71239e-08 -3.26702e-09 -3.59115e-09 -7.54913e-09 -2.79063e-08 -2.43636e-09 -9.40082e-09 -4.46819e-09 -1.33375e-09
          -1.27301e-09 -2.04071e-08 -1.17822e-08 -3.73799e-09 -2.68624e-08 -2.03834e-08 -4.5583e-08 -3.31163e-09 -3.36015e-09 -9.25332e-09 -2.9572e-08 -3.07791e-09
          -7.39126e-09 -3.56494e-09 -1.53425e-09 -1.2345e-09 -1.94066e-08 -7.55455e-09 -3.57268e-09 -2.16448e-08 -1.02114e-08 -5.9857e-08 -3.6447e-09 -4.175e-09
          -1.13542e-08 -3.12325e-08 -3.43231e-09 -4.884e-09 -2.42124e-09 -1.70345e-09 -1.4043e-09 -1.52133e-08 -6.59063e-09 -3.92707e-09 -2.07862e-08 -6.49718e-09
          -6.29539e-08 -4.63934e-09 -6.34536e-09 -1.27217e-08 -3.34316e-08 -4.87333e-09 -2.40102e-09 -1.30323e-09 -1.20269e-09 -1.29376e-09 -8.7648e-09 -6.01027e-09
          -4.21149e-09 -2.23595e-08 -6.28972e-09 -5.64366e-08 -7.69198e-09 -1.0969e-08 -1.76187e-08 -3.54125e-08 -6.1565e-09 -7.44417e-10 -5.53533e-10 -4.11744e-10
          -4.13718e-10 -2.4204e-09 -2.58019e-09 -2.10454e-09 -1.29565e-08 -6.50194e-09 -3.28537e-08 -1.40865e-08 -1.23432e-08 -1.40885e-08 -1.96857e-08 -3.30447e-09
        </DataArray>
        <DataArray type="Float32" Name="z[0]" NumberOfComponents="1" format="ascii">
          0.150578 0.150579 0.15058 0.150582 0.150582 0.150583 0.150584 0.150585 0.150585 0.150586 0.150587 0.150588
          0.150589 0.150591 0.150596 0.150581 0.150582 0.150583 0.150585 0.150586 0.150587 0.150587 0.150588 0.150588
          0.150589 0.15059 0.150591 0.150593 0.150595 0.150599 0.150584 0.150585 0.150587 0.150588 0.150589 0.15059
          0.15059 0.150591 0.150592 0.150593 0.150593 0.150595 0.150596 0.150598 0.150602 0.150588 0.150589 0.15059
          0.150591 0.150592 0.150593 0.150594 0.150594 0.150595 0.150596 0.150597 0.150598 0.150599 0.150601 0.150605
          0.150591 0.150592 0.150593 0.150594 0.150595 0.150596 0.150597 0.150597 0.150598 0.150599 0.1506 0.150601
          0.150602 0.150604 0.150609 0.150594 0.150595 0.150596 0.150597 0.150598 0.150599 0.1506 0.150654 0.150601
          0.150602 0.150603 0.150604 0.150605 0.150607 0.150612 0.150597 0.150598 0.150599 0.150601 0.150601 0.150602