<?xml version="1.0"?>
<VTKFile type="UnstructuredGrid" version="0.1" byte_order="LittleEndian">
  <UnstructuredGrid>
    <Piece NumberOfCells="360" NumberOfPoints="800">
      <CellData Scalars="pressure[0]">
        <DataArray type="Float32" Name="pressure[0]" NumberOfComponents="1" format="ascii">
          2.10044e+07 2.1019e+07 2.15206e+07 2.20449e+07 2.24089e+07 2.28384e+07 2.29766e+07 2.30272e+07 2.3089e+07 2.31586e+07 2.33692e+07 2.37154e+07
          2.39718e+07 2.4626e+07 2.53787e+07 2.10485e+07 2.1063e+07 2.16179e+07 2.21645e+07 2.25672e+07 2.30124e+07 2.31147e+07 2.31547e+07 2.3219e+07
          2.32995e+07 2.35961e+07 2.39474e+07 2.41528e+07 2.48162e+07 2.55454e+07 2.10929e+07 2.11071e+07 2.16836e+07 2.23032e+07 2.26536e+07 2.30683e+07
          2.31925e+07 2.32528e+07 2.33393e+07 2.34549e+07 2.38606e+07 2.4264e+07 2.44603e+07 2.50645e+07 2.57572e+07 2.11387e+07 2.11569e+07 2.15422e+07
          2.24353e+07 2.27639e+07 2.31511e+07 2.32634e+07 2.33177e+07 2.34613e+07 2.36564e+07 2.42056e+07 2.46575e+07 2.48411e+07 2.53603e+07 2.60216e+07
          2.1246e+07 2.12708e+07 1.97885e+07 2.25338e+07 2.29367e+07 2.33295e+07 2.33993e+07 2.3436e+07 2.36902e+07 2.40842e+07 2.46188e+07 2.50317e+07
          2.52172e+07 2.56954e+07 2.62815e+07 2.14459e+07 2.14889e+07 2.20053e+07 2.30117e+07 2.33052e+07 2.35657e+07 2.36195e+07 2.36987e+07 2.40514e+07
          2.45733e+07 2.5101e+07 2.53704e+07 2.55685e+07 2.60332e+07 2.65729e+07 2.17023e+07 2.17522e+07 2.2646e+07 2.35017e+07 2.37034e+07 2.41756e+07
          2.42535e+07 2.43343e+07 2.45525e+07 2.51055e+07 2.55592e+07 2.56698e+07 2.58573e+07 2.63986e+07 2.69789e+07 2.20723e+07 2.21263e+07 2.31998e+07
          2.40063e+07 2.4229e+07 2.47288e+07 2.47972e+07 2.48664e+07 2.5071e+07 2.55383e+07 2.5857e+07 2.59383e+07 2.61887e+07 2.67753e+07 2.75401e+07
          2.26135e+07 2.26771e+07 2.36808e+07 2.4523e+07 2.48022e+07 2.52106e+07 2.53478e+07 2.54866e+07 2.56718e+07 2.59978e+07 2.61656e+07 2.61973e+07
          2.6454e+07 2.72003e+07 2.81e+07 2.32688e+07 2.33766e+07 2.4037e+07 2.47701e+07 2.53001e+07 2.5634e+07 2.59313e+07 2.62171e+07 2.63229e+07
          2.64628e+07 2.65407e+07 2.65694e+07 2.68381e+07 2.76263e+07 2.84325e+07 2.42249e+07 2.43664e+07 2.46552e+07 2.52266e+07 2.5712e+07 2.59486e+07
          2.64058e+07 2.68187e+07 2.69088e+07 2.69187e+07 2.69247e+07 2.69617e+07 2.71847e+07 2.79731e+07 2.86777e+07 2.49074e+07 2.49865e+07 2.51471e+07
          2.56153e+07 2.60588e+07 2.62607e+07 2.68793e+07 2.73882e+07 2.74146e+07 2.73698e+07 2.73259e+07 2.73434e+07 2.7556e+07 2.83152e+07 2.93485e+07
          2.53968e+07 2.54339e+07 2.5554e+07 2.58601e+07 2.6721e+07 2.68341e+07 2.74792e+07 2.80374e+07 2.81229e+07 2.78584e+07 2.78222e+07 2.81975e+07
          2.88331e+07 2.98461e+07 3.00948e+07 2.6035e+07 2.61736e+07 2.6222e+07 2.65838e+07 2.76689e+07 2.77724e+07 2.82946e+07 2.87028e+07 2.87711e+07
          2.88248e+07 2.88448e+07 2.94011e+07 3.0177e+07 3.0768e+07 3.05302e+07 2.69432e+07 2.69556e+07 2.70987e+07 2.77901e+07 2.85626e+07 2.86391e+07
          2.89836e+07 2.92343e+07 2.92866e+07 2.93678e+07 2.95267e+07 3.03708e+07 3.10294e+07 3.12128e+07 3.10519e+07 2.76789e+07 2.77083e+07 2.78925e+07
          2.88541e+07 2.91146e+07 2.91715e+07 2.9414e+07 2.9573e+07 2.96236e+07 2.97013e+07 3.0016e+07 3.08088e+07 3.13983e+07 3.17233e+07 3.15447e+07
          2.84116e+07 2.84546e+07 2.85719e+07 2.93943e+07 2.9548e+07 2.95866e+07 2.97076e+07 2.98149e+07 2.98637e+07 2.99286e+07 3.03496e+07 3.1288e+07
          3.19177e+07 3.22327e+07 3.19962e+07 2.9006e+07 2.90641e+07 2.94145e+07 2.97099e+07 2.98409e+07 2.9885e+07 2.99785e+07 3.00577e+07 3.01086e+07
          3.01675e+07 3.06848e+07 3.16738e+07 3.23156e+07 3.25722e+07 3.24469e+07 2.93214e+07 2.93874e+07 2.96049e+07 2.99273e+07 3.00947e+07 3.01423e+07
          3.02238e+07 3.02932e+07 3.03397e+07 3.03962e+07 3.09643e+07 3.20556e+07 3.27117e+07 3.2902e+07 3.30729e+07 2.95741e+07 2.96328e+07 2.98311e+07
          3.0152e+07 3.03162e+07 3.03644e+07 3.04433e+07 3.05089e+07 3.05557e+07 3.06189e+07 3.11809e+07 3.23822e+07 3.31025e+07 3.32503e+07 3.36686e+07
          2.97861e+07 2.98529e+07 3.00114e+07 3.03086e+07 3.05129e+07 3.05664e+07 3.06516e+07 3.07212e+07 3.0785e+07 3.08659e+07 3.16609e+07 3.29445e+07
          3.34646e+07 3.3621e+07 3.41334e+07 2.99891e+07 3.00585e+07 3.02e+07 3.04909e+07 3.06994e+07 3.07586e+07 3.08582e+07 3.09385e+07 3.10224e+07
          3.11161e+07 3.21891e+07 3.35212e+07 3.38399e+07 3.40317e+07 3.45864e+07 3.01738e+07 3.02372e+07 3.04081e+07 3.07154e+07 3.08859e+07 3.09546e+07
          3.10725e+07 3.11663e+07 3.12757e+07 3.13936e+07 3.26357e+07 3.39959e+07 3.4268e+07 3.44836e+07 3.49106e+07 3.03423e+07 3.04025e+07 3.05525e+07
          3.08612e+07 3.10807e+07 3.11512e+07 3.12844e+07 3.13942e+07 3.15287e+07 3.16889e+07 3.31296e+07 3.44081e+07 3.47103e+07 3.49046e+07 3.5197e+07
        </DataArray>
        <DataArray type="Float32" Name="pressure[1]" NumberOfComponents="1" format="ascii">
          2.10044e+07 2.1019e+07 2.15206e+07 2.20449e+07 2.24089e+07 2.28384e+07 2.29766e+07 2.30272e+07 2.3089e+07 2.31586e+07 2.33692e+07 2.37154e+07
          2.39718e+07 2.4626e+07 2.53787e+07 2.10485e+07 2.1063e+07 2.16179e+07 2.21645e+07 2.25672e+07 2.30124e+07 2.31147e+07 2.31547e+07 2.3219e+07
          2.32995e+07 2.35961e+07 2.39474e+07 2.41528e+07 2.48162e+07 2.55454e+07 2.10929e+07 2.11071e+07 2.16836e+07 2.23032e+07 2.26536e+07 2.30683e+07
          2.31925e+07 2.32528e+07 2.33393e+07 2.34549e+07 2.38606e+07 2.4264e+07 2.44603e+07 2.50645e+07 2.57572e+07 2.11387e+07 2.11569e+07 2.15422e+07
          2.24353e+07 2.27639e+07 2.31511e+07 2.32634e+07 2.33177e+07 2.34613e+07 2.36564e+07 2.42056e+07 2.46575e+07 2.48411e+07 2.53603e+07 2.60216e+07
          2.1246e+07 2.12708e+07 1.97885e+07 2.25338e+07 2.29367e+07 2.33295e+07 2.33993e+07 2.3436e+07 2.36902e+07 2.40842e+07 2.46188e+07 2.50317e+07
          2.52172e+07 2.56954e+07 2.62815e+07 2.14459e+07 2.14889e+07 2.20053e+07 2.30117e+07 2.33052e+07 2.35657e+07 2.36195e+07 2.36987e+07 2.40514e+07
          2.45733e+07 2.5101e+07 2.53704e+07 2.55685e+07 2.60332e+07 2.65729e+07 2.17023e+07 2.17522e+07 2.2646e+07 2.35017e+07 2.37034e+07 2.41756e+07
          2.42535e+07 2.43343e+07 2.45525e+07 2.51055e+07 2.55592e+07 2.56698e+07 2.58573e+07 2.63986e+07 2.69789e+07 2.20723e+07 2.21263e+07 2.31998e+07
          2.40063e+07 2.4229e+07 2.47288e+07 2.47972e+07 2.48664e+07 2.5071e+07 2.55383e+07 2.5857e+07 2.59383e+07 2.61887e+07 2.67753e+07 2.75401e+07
          2.26135e+07 2.26771e+07 2.36808e+07 2.4523e+07 2.48022e+07 2.52106e+07 2.53478e+07 2.54866e+07 2.56718e+07 2.59978e+07 2.61656e+07 2.61973e+07
          2.6454e+07 2.72003e+07 2.81e+07 2.32688e+07 2.33766e+07 2.4037e+07 2.47701e+07 2.53001e+07 2.5634e+07 2.59313e+07 2.62171e+07 2.63229e+07
          2.64628e+07 2.65407e+07 2.65694e+07 2.68381e+07 2.76263e+07 2.84325e+07 2.42249e+07 2.43664e+07 2.46552e+07 2.52266e+07 2.5712e+07 2.59486e+07
          2.64058e+07 2.68187e+07 2.69088e+07 2.69187e+07 2.69247e+07 2.69617e+07 2.71847e+07 2.79731e+07 2.86777e+07 2.49074e+07 2.49865e+07 2.51471e+07
          2.56153e+07 2.60588e+07 2.62607e+07 2.68793e+07 2.73882e+07 2.74146e+07 2.73698e+07 2.73259e+07 2.73434e+07 2.7556e+07 2.83152e+07 2.93485e+07
          2.53968e+07 2.54339e+07 2.5554e+07 2.58601e+07 2.6721e+07 2.68341e+07 2.74792e+07 2.80374e+07 2.81229e+07 2.78584e+07 2.78222e+07 2.81975e+07
          2.88331e+07 2.98461e+07 3.00948e+07 2.6035e+07 2.61736e+07 2.6222e+07 2.65838e+07 2.76689e+07 2.77724e+07 2.82946e+07 2.87028e+07 2.87711e+07
          2.88248e+07 2.88448e+07 2.94011e+07 3.0177e+07 3.0768e+07 3.05302e+07 2.69432e+07 2.69556e+07 2.70987e+07 2.77901e+07 2.85626e+07 2.86391e+07
          2.89836e+07 2.92343e+07 2.92866e+07 2.93678e+07 2.95267e+07 3.03708e+07 3.10294e+07 3.12128e+07 3.10519e+07 2.76789e+07 2.77083e+07 2.78925e+07
          2.88541e+07 2.91146e+07 2.91715e+07 2.9414e+07 2.9573e+07 2.96236e+07 2.97013e+07 3.0016e+07 3.08088e+07 3.13983e+07 3.17233e+07 3.15447e+07
          2.84116e+07 2.84546e+07 2.85719e+07 2.93943e+07 2.9548e+07 2.95866e+07 2.97076e+07 2.98149e+07 2.98637e+07 2.99286e+07 3.03496e+07 3.1288e+07
          3.19177e+07 3.22327e+07 3.19962e+07 2.9006e+07 2.90641e+07 2.94145e+07 2.97099e+07 2.98409e+07 2.9885e+07 2.99785e+07 3.00577e+07 3.01086e+07
          3.01675e+07 3.06848e+07 3.16738e+07 3.23156e+07 3.25722e+07 3.24469e+07 2.93214e+07 2.93874e+07 2.96049e+07 2.99273e+07 3.00947e+07 3.01423e+07
          3.02238e+07 3.02932e+07 3.03397e+07 3.03962e+07 3.09643e+07 3.20556e+07 3.27117e+07 3.2902e+07 3.30729e+07 2.95741e+07 2.96328e+07 2.98311e+07
          3.0152e+07 3.03162e+07 3.03644e+07 3.04433e+07 3.05089e+07 3.05557e+07 3.06189e+07 3.11809e+07 3.23822e+07 3.31025e+07 3.32503e+07 3.36686e+07
          2.97861e+07 2.98529e+07 3.00114e+07 3.03086e+07 3.05129e+07 3.05664e+07 3.06516e+07 3.07212e+07 3.0785e+07 3.08659e+07 3.16609e+07 3.29445e+07
          3.34646e+07 3.3621e+07 3.41334e+07 2.99891e+07 3.00585e+07 3.02e+07 3.04909e+07 3.06994e+07 3.07586e+07 3.08582e+07 3.09385e+07 3.10224e+07
          3.11161e+07 3.21891e+07 3.35212e+07 3.38399e+07 3.40317e+07 3.45864e+07 3.01738e+07 3.02372e+07 3.04081e+07 3.07154e+07 3.08859e+07 3.09546e+07
          3.10725e+07 3.11663e+07 3.12757e+07 3.13936e+07 3.26357e+07 3.39959e+07 3.4268e+07 3.44836e+07 3.49106e+07 3.03423e+07 3.04025e+07 3.05525e+07
          3.08612e+07 3.10807e+07 3.11512e+07 3.12844e+07 3.13942e+07 3.15287e+07 3.16889e+07 3.31296e+07 3.44081e+07 3.47103e+07 3.49046e+07 3.5197e+07
        </DataArray>
        <DataArray type="Float32" Name="pressure[2]" NumberOfComponents="1" format="ascii">
          2.10044e+07 2.1019e+07 2.15206e+07 2.20449e+07 2.24089e+07 2.28384e+07 2.29766e+07 2.30272e+07 2.3089e+07 2.31586e+07 2.33692e+07 2.37154e+07
          2.39718e+07 2.4626e+07 2.53787e+07 2.10485e+07 2.1063e+07 2.16179e+07 2.21645e+07 2.25672e+07 2.30124e+07 2.31147e+07 2.31547e+07 2.3219e+07
          2.32995e+07 2.35961e+07 2.39474e+07 2.41528e+07 2.48162e+07 2.55454e+07 2.10929e+07 2.11071e+07 2.16836e+07 2.23032e+07 2.26536e+07 2.30683e+07
          2.31925e+07 2.32528e+07 2.33393e+07 2.34549e+07 2.38606e+07 2.4264e+07 2.44603e+07 2.50645e+07 2.57572e+07 2.11387e+07 2.11569e+07 2.15422e+07
          2.24353e+07 2.27639e+07 2.31511e+07 2.32634e+07 2.33177e+07 2.34613e+07 2.36564e+07 2.42056e+07 2.46575e+07 2.48411e+07 2.53603e+07 2.60216e+07
          2.1246e+07 2.12708e+07 1.97885e+07 2.25338e+07 2.29367e+07 2.33295e+07 2.33993e+07 2.3436e+07 2.36902e+07 2.40842e+07 2.46188e+07 2.50317e+07
          2.52172e+07 2.56954e+07 2.62815e+07 2.14459e+07 2.14889e+07 2.20053e+07 2.30117e+07 2.33052e+07 2.35657e+07 2.36195e+07 2.36987e+07 2.40514e+07
          2.45733e+07 2.5101e+07 2.53704e+07 2.55685e+07 2.60332e+07 2.65729e+07 2.17023e+07 2.17522e+07 2.2646e+07 2.35017e+07 2.37034e+07 2.41756e+07
          2.42535e+07 2.43343e+07 2.45525e+07 2.51055e+07 2.55592e+07 2.56698e+07 2.58573e+07 2.63986e+07 2.69789e+07 2.20723e+07 2.21263e+07 2.31998e+07
          2.40063e+07 2.4229e+07 2.47288e+07 2.47972e+07 2.48664e+07 2.5071e+07 2.55383e+07 2.5857e+07 2.59383e+07 2.61887e+07 2.67753e+07 2.75401e+07
          2.26135e+07 2.26771e+07 2.36808e+07 2.4523e+07 2.48022e+07 2.52106e+07 2.53478e+07 2.54866e+07 2.56718e+07 2.59978e+07 2.61656e+07 2.61973e+07
          2.6454e+07 2.72003e+07 2.81e+07 2.32688e+07 2.33766e+07 2.4037e+07 2.47701e+07 2.53001e+07 2.5634e+07 2.59313e+07 2.62171e+07 2.63229e+07
          2.64628e+07 2.65407e+07 2.65694e+07 2.68381e+07 2.76263e+07 2.84325e+07 2.42249e+07 2.43664e+07 2.46552e+07 2.52266e+07 2.5712e+07 2.59486e+07
          2.64058e+07 2.68187e+07 2.69088e+07 2.69187e+07 2.69247e+07 2.69617e+07 2.71847e+07 2.79731e+07 2.86777e+07 2.49074e+07 2.49865e+07 2.51471e+07
          2.56153e+07 2.60588e+07 2.62607e+07 2.68793e+07 2.73882e+07 2.74146e+07 2.73698e+07 2.73259e+07 2.73434e+07 2.7556e+07 2.83152e+07 2.93485e+07
          2.53968e+07 2.54339e+07 2.5554e+07 2.58601e+07 2.6721e+07 2.68341e+07 2.74792e+07 2.80374e+07 2.81229e+07 2.78584e+07 2.78222e+07 2.81975e+07
          2.88331e+07 2.98461e+07 3.00948e+07 2.6035e+07 2.61736e+07 2.6222e+07 2.65838e+07 2.76689e+07 2.77724e+07 2.82946e+07 2.87028e+07 2.87711e+07
          2.88248e+07 2.88448e+07 2.94011e+07 3.0177e+07 3.0768e+07 3.05302e+07 2.69432e+07 2.69556e+07 2.70987e+07 2.77901e+07 2.85626e+07 2.86391e+07
          2.89836e+07 2.92343e+07 2.92866e+07 2.93678e+07 2.95267e+07 3.03708e+07 3.10294e+07 3.12128e+07 3.10519e+07 2.76789e+07 2.77083e+07 2.78925e+07
          2.88541e+07 2.91146e+07 2.91715e+07 2.9414e+07 2.9573e+07 2.96236e+07 2.97013e+07 3.0016e+07 3.08088e+07 3.13983e+07 3.17233e+07 3.15447e+07
          2.84116e+07 2.84546e+07 2.85719e+07 2.93943e+07 2.9548e+07 2.95866e+07 2.97076e+07 2.98149e+07 2.98637e+07 2.99286e+07 3.03496e+07 3.1288e+07
          3.19177e+07 3.22327e+07 3.19962e+07 2.9006e+07 2.90641e+07 2.94145e+07 2.97099e+07 2.98409e+07 2.9885e+07 2.99785e+07 3.00577e+07 3.01086e+07
          3.01675e+07 3.06848e+07 3.16738e+07 3.23156e+07 3.25722e+07 3.24469e+07 2.93214e+07 2.93874e+07 2.96049e+07 2.99273e+07 3.00947e+07 3.01423e+07
          3.02238e+07 3.02932e+07 3.03397e+07 3.03962e+07 3.09643e+07 3.20556e+07 3.27117e+07 3.2902e+07 3.30729e+07 2.95741e+07 2.96328e+07 2.98311e+07
          3.0152e+07 3.03162e+07 3.03644e+07 3.04433e+07 3.05089e+07 3.05557e+07 3.06189e+07 3.11809e+07 3.23822e+07 3.31025e+07 3.32503e+07 3.36686e+07
          2.97861e+07 2.98529e+07 3.00114e+07 3.03086e+07 3.05129e+07 3.05664e+07 3.06516e+07 3.07212e+07 3.0785e+07 3.08659e+07 3.16609e+07 3.29445e+07
          3.34646e+07 3.3621e+07 3.41334e+07 2.99891e+07 3.00585e+07 3.02e+07 3.04909e+07 3.06994e+07 3.07586e+07 3.08582e+07 3.09385e+07 3.10224e+07
          3.11161e+07 3.21891e+07 3.35212e+07 3.38399e+07 3.40317e+07 3.45864e+07 3.01738e+07 3.02372e+07 3.04081e+07 3.07154e+07 3.08859e+07 3.09546e+07
          3.10725e+07 3.11663e+07 3.12757e+07 3.13936e+07 3.26357e+07 3.39959e+07 3.4268e+07 3.44836e+07 3.49106e+07 3.03423e+07 3.04025e+07 3.05525e+07
          3.08612e+07 3.10807e+07 3.11512e+07 3.12844e+07 3.13942e+07 3.15287e+07 3.16889e+07 3.31296e+07 3.44081e+07 3.47103e+07 3.49046e+07 3.5197e+07
        </DataArray>
        <DataArray type="Float32" Name="velocity[0]" NumberOfComponents="1" format="ascii">
          -3.74698e-10 2.94465e-08 2.8293e-10 1.36483e-09 -1.84526e-10 -1.12713e-09 4.66752e-10 1.80111e-09 2.9855e-09 -1.44864e-11 -1.92139e-09 -2.75534e-09
          -1.84817e-09 -5.38963e-10 -2.67873e-09 -4.94186e-09 8.86861e-08 6.31824e-10 -2.56696e-09 2.87879e-10 2.44767e-09 1.06599e-08 7.40945e-09 7.0495e-09
          -1.4599e-09 -3.98429e-09 -1.16718e-08 -7.15711e-09 -1.78044e-09 -7.11979e-09 -2.94066e-08 1.53587e-07 1.26606e-09 2.16699e-08 9.73996e-10 7.09355e-09
          1.96315e-08 1.55486e-08 5.71082e-09 -4.83989e-09 -4.80722e-09 -2.93283e-08 -1.02432e-08 -3.91389e-09 -1.06867e-08 -3.28796e-08 1.71419e-07 6.55719e-09
          9.46747e-08 -5.2629e-10 -1.03022e-09 1.04489e-08 1.48443e-08 -1.44655e-09 -1.2469e-08 -6.34813e-09 -5.13992e-08 -7.30388e-09 -5.70124e-09 -1.45769e-08
          -9.11537e-08 -4.18007e-08 -2.25591e-10 -9.44334e-08 -1.20264e-08 -3.49409e-08 -2.92804e-08 -1.01639e-08 -6.70475e-09 -1.37112e-08 -9.10839e-09 -8.86826e-08
          -3.73712e-09 -5.22932e-09 -1.79458e-08 -1.75346e-07 -2.16595e-07 -7.13221e-09 -2.27822e-07 -2.79122e-08 -1.08445e-07 -6.48677e-08 -8.45439e-08 -8.33672e-09
          -6.98523e-09 -1.42184e-08 -1.30257e-07 -2.23848e-09 -4.1697e-09 -2.0183e-08 -1.77167e-07 -1.89879e-07 -2.51989e-09 -8.50311e-08 -3.86044e-08 -1.75768e-07
          -5.87387e-08 -1.7042e-07 -8.89751e-09 -3.70727e-09 -1.77204e-08 -1.57809e-07 -1.92705e-09 -4.08231e-09 -2.17141e-08 -1.62249e-07 -1.76054e-07 -2.88318e-09
          -2.79095e-08 -4.18177e-08 -2.0005e-07 -3.31439e-08 -2.38924e-07 -7.47346e-09 -2.84218e-09 -1.95878e-08 -1.74658e-07 -1.58618e-09 -4.1596e-09 -2.34392e-08
          -1.46307e-07 -1.59375e-07 -3.20606e-09 -8.02673e-09 -3.64828e-08 -2.104e-07 -1.21853e-08 -3.10126e-07 -5.92142e-09 -3.10603e-09 -3.21991e-08 -1.6669e-07
          -1.51207e-09 -3.71313e-09 -2.57251e-08 -1.16842e-07 -1.43356e-07 -1.00804e-08 -2.28126e-09 -3.01614e-08 -2.15904e-07 -4.13074e-09 -3.81758e-07 -5.58644e-09
          -3.64767e-09 -5.43368e-08 -1.38399e-07 -2.33925e-09 -3.047e-09 -2.80161e-08 -8.34899e-08 -1.29418e-07 -1.91274e-08 -2.05675e-09 -2.71107e-08 -2.19831e-07
          -1.41616e-09 -4.37822e-07 -1.02241e-08 -5.19813e-09 -6.97786e-08 -1.06664e-07 -5.26222e-09 -3.23571e-09 -3.01092e-08 -6.36775e-08 -1.13971e-07 -2.34441e-08
          -8.56743e-10 -2.13672e-08 -2.3664e-07 -1.18976e-09 -4.81371e-07 -1.96985e-08 -9.31706e-09 -7.71192e-08 -5.8472e-08 -1.34038e-08 -7.00307e-09 -3.17133e-08
          -5.94061e-08 -8.59731e-08 -2.83591e-08 -2.95915e-09 -1.68873e-08 -2.33381e-07 -1.75437e-09 -5.16843e-07 -4.78638e-08 -1.20141e-08 -5.71286e-08 -1.82715e-08
          -2.79468e-08 -1.45034e-08 -3.24348e-08 -5.31235e-08 -8.06072e-08 -2.51838e-08 -6.73012e-09 -2.07168e-08 -2.14154e-07 -1.82877e-09 -5.06277e-07 -8.57501e-08
          -1.59987e-08 -2.5348e-08 -7.34522e-09 -3.42552e-08 -2.64377e-08 -3.11453e-08 -4.83864e-08 -8.31135e-08 -1.58213e-08 -6.20665e-09 -2.79697e-08 -2.13914e-07
          -1.31467e-09 -4.65648e-07 -1.04018e-07 -2.41185e-08 -1.51894e-08 -3.89453e-09 -3.13879e-08 -4.13697e-08 -2.77933e-08 -5.60507e-08 -6.18362e-08 -1.18138e-08
          -4.20177e-09 -3.492e-08 -2.14384e-07 -1.66219e-09 -3.97295e-07 -1.09089e-07 -3.29845e-08 -8.99497e-09 -5.15757e-09 -3.5486e-08 -6.10877e-08 -2.33555e-08
          -5.96604e-08 -4.64013e-08 -8.10073e-09 -5.10814e-09 -4.95366e-08 -1.8853e-07 -3.18614e-09 -3.14524e-07 -1.10027e-07 -5.12611e-08 -3.66042e-09 -5.04629e-09
          -2.92699e-08 -9.09607e-08 -1.85428e-08 -5.93976e-08 -3.71107e-08 -2.88355e-09 -3.84394e-09 -7.39347e-08 -1.36488e-07 -4.84666e-09 -2.39724e-07 -1.18687e-07
          -7.78475e-08 -2.58977e-09 -3.4049e-09 -1.90491e-08 -1.19122e-07 -1.44823e-08 -5.38812e-08 -2.66605e-08 -1.5054e-09 -1.42155e-09 -9.15357e-08 -8.69259e-08
          -5.10258e-09 -1.70902e-07 -1.1849e-07 -1.22164e-07 -1.50174e-09 -2.80582e-09 -2.49767e-08 -1.36368e-07 -1.26941e-08 -4.48955e-08 -1.80218e-08 -1.4759e-09
          -6.49673e-10 -9.76096e-08 -4.94906e-08 -4.26167e-09 -1.25062e-07 -7.65438e-08 -2.11241e-07 -2.63105e-09 -4.00454e-09 -3.71277e-08 -1.44821e-07 -1.36854e-08
          -3.43939e-08 -1.21445e-08 -1.32842e-09 -1.76806e-10 -9.08849e-08 -2.59057e-08 -3.6566e-09 -9.83487e-08 -3.19765e-08 -2.92576e-07 -4.13124e-09 -7.38599e-09
          -4.51187e-08 -1.5153e-07 -1.57508e-08 -2.16649e-08 -6.20755e-09 -2.07789e-09 -8.09586e-10 -6.72115e-08 -1.76139e-08 -3.56848e-09 -9.2567e-08 -1.73167e-08
          -3.08917e-07 -3.76269e-09 -1.41595e-08 -4.94106e-08 -1.58348e-07 -1.95712e-08 -1.01262e-08 -2.48781e-09 -9.37955e-10 -5.36889e-10 -3.35342e-08 -1.31283e-08
          -2.92291e-09 -9.73708e-08 -1.39305e-08 -2.65899e-07 -5.21669e-09 -2.43979e-08 -6.49723e-08 -1.65157e-07 -2.55836e-08 -2.68521e-09 -5.61364e-10 2.03029e-10
          7.24148e-11 -7.89378e-09 -5.00519e-09 -1.06864e-09 -4.95523e-08 -6.48324e-09 -1.14901e-07 -3.44201e-09 -1.48018e-08 -3.88447e-08 -8.49296e-08 -1.43713e-08
        </DataArray>
        <DataArray type="Float32" Name="velocity[1]" NumberOfComponents="1" format="ascii">
          5.82325e-26 4.66227e-24 6.61908e-26 2.1211e-25 2.86775e-26 0 -7.25387e-26 -2.40404e-25 5.55773e-26 5.77979e-24 -3.76358e-24 5.06889e-26
          2.44618e-24 -9.86128e-25 4.1597e-25 6.51558e-25 4.55715e-24 6.08803e-26 -8.23156e-25 -1.73025e-25 7.15901e-24 1.31589e-24 4.3735e-25 -6.76702e-24
          -1.59963e-25 0 -4.81605e-26 5.75931e-26 3.00389e-28 2.73887e-25 3.15056e-24 -6.77218e-24 -1.40443e-24 4.58986e-24 -1.87648e-25 0
          5.11595e-26 -7.18383e-25 -3.75657e-25 0 7.16204e-24 -1.12385e-23 0 1.12326e-24 -2.81175e-25 -5.1989e-24 1.38979e-23 -1.41122e-24
          -8.79552e-24 3.69636e-25 8.89131e-24 -2.21797e-23 2.42722e-23 -4.36663e-24 1.20481e-24 3.63983e-24 -4.70697e-24 3.09472e-24 -1.29796e-24 9.72732e-25
          -9.7581e-26 -6.09041e-23 5.59758e-24 9.63088e-24 -3.32843e-25 -4.1879e-24 7.69531e-26 -8.79361e-26 -2.31332e-25 -7.03891e-24 4.45008e-24 -8.3024e-24
          -1.76693e-28 1.28486e-25 -1.49421e-24 -1.31153e-25 6.5738e-24 -5.50589e-25 7.07671e-24 1.48072e-25 -7.63391e-24 0 -1.42969e-25 -2.89062e-25
          3.19456e-25 -4.99927e-25 6.01454e-24 -1.38511e-24 8.20584e-25 1.49336e-24 -9.66998e-25 1.08681e-24 0 6.99417e-24 8.34148e-25 -1.00698e-23
          -1.70242e-26 -7.6327e-26 -3.0934e-24 2.26932e-28 -1.81559e-28 -5.05862e-28 2.89021e-26 -2.16637e-28 -1.64246e-24 -1.83553e-25 1.29879e-23 1.26493e-24
          4.1595e-24 -5.07244e-26 1.44654e-23 1.20797e-26 1.53878e-26 2.70606e-25 -1.95378e-26 -3.33219e-24 -1.30204e-23 -1.69859e-28 -3.47922e-25 1.91055e-24
          -1.48831e-24 -9.23479e-24 -2.28149e-26 -1.33775e-24 -5.95958e-25 3.46945e-24 0 0 -2.21788e-25 4.70668e-29 7.11567e-25 3.77131e-24
          -3.31314e-28 5.85386e-26 -5.07014e-28 -1.07223e-23 1.51892e-24 1.71776e-24 -9.30229e-26 -3.09553e-24 3.57268e-24 -6.60483e-24 5.8252e-24 2.92702e-25
          -6.26007e-26 -2.37826e-25 3.45181e-24 -7.87642e-25 0 -2.08744e-24 3.99113e-24 1.55785e-25 3.29294e-25 -2.24663e-25 2.42883e-24 5.46245e-28
          -4.17436e-24 5.78635e-24 6.66889e-25 1.78385e-25 -2.33709e-25 8.03799e-24 1.71143e-24 -2.93609e-25 1.46804e-25 -4.35725e-24 2.82863e-24 -3.4386e-25
          1.11014e-25 -3.11437e-24 -1.93703e-23 3.29376e-26 3.88111e-24 -3.2412e-24 -4.61777e-25 1.53108e-24 2.96015e-24 -1.79521e-24 1.00576e-24 -1.02872e-25
          4.87343e-24 8.15046e-24 0 -3.82767e-25 1.18602e-25 2.47832e-24 5.45321e-26 1.63927e-24 -3.57173e-24 -8.97556e-29 -2.6523e-24 -8.30364e-25
          1.39017e-24 -8.00013e-25 -2.38088e-28 -1.49433e-24 -3.32909e-28 8.53509e-25 -4.0673e-25 1.64669e-28 1.60744e-23 -4.30979e-26 -3.27464e-24 5.70319e-24
          -2.96484e-25 2.65272e-24 2.23672e-24 -4.41245e-24 -2.96142e-29 -2.31545e-24 -3.38144e-24 -5.60252e-24 5.85174e-28 6.24613e-25 6.50633e-25 8.53554e-28
          -3.66512e-26 -7.58171e-24 2.02067e-24 0 0 3.1117e-25 3.66194e-24 -4.96316e-25 4.31956e-24 0 1.594e-24 0
          -3.13032e-25 4.29871e-25 5.94585e-28 9.06598e-26 -7.5862e-24 -1.25624e-28 -1.43297e-28 -2.95401e-28 4.05172e-24 -4.91956e-28 -1.18918e-24 -2.0038e-24
          -1.67575e-28 8.05117e-25 5.71275e-28 -1.68217e-25 1.84215e-24 -9.91601e-24 0 -1.02529e-23 0 2.76755e-28 2.97028e-24 -3.67243e-24
          -1.63858e-24 3.11783e-28 1.25598e-24 0 3.20327e-24 0 4.81153e-25 1.66912e-24 4.79457e-24 1.11636e-25 -6.34698e-24 -5.43027e-24
          -2.06926e-24 1.74409e-25 4.84853e-26 -8.73123e-29 -1.67769e-24 -9.94733e-25 3.84265e-24 -1.9056e-24 2.09495e-24 -1.72841e-24 7.85745e-25 8.36895e-24
          -7.18499e-26 -4.34851e-24 9.95462e-24 5.26278e-24 -3.16594e-24 6.89087e-26 8.71331e-25 -4.75674e-28 9.78078e-25 2.46359e-28 -3.46763e-24 7.502e-25
          -1.59257e-24 3.16429e-25 -2.58976e-24 -1.1742e-25 -5.55178e-24 -5.02465e-24 9.02742e-24 2.57629e-25 3.38228e-24 1.01684e-24 -3.41964e-25 -8.07365e-25
          -9.24066e-25 5.56737e-25 0 -3.4401e-26 -1.20333e-24 4.17536e-24 -7.34208e-24 7.3425e-24 -5.40855e-24 1.25731e-27 0 0
          2.25124e-25 -6.86463e-28 1.29907e-24 -1.05416e-24 -1.10716e-24 1.02241e-24 -1.71814e-24 -9.24637e-25 -1.26218e-24 2.1263e-26 4.77273e-25 -3.52369e-24
          1.27738e-23 -2.43366e-25 -6.14155e-24 4.41516e-25 8.87871e-25 -1.43785e-28 -7.38796e-25 -2.86485e-28 -3.21896e-28 1.05239e-25 -2.75824e-24 4.8479e-25
          -1.22096e-25 9.61276e-24 -4.00285e-24 0 -2.59123e-25 -8.08657e-25 6.26038e-24 -7.31578e-25 0 -4.17639e-25 -3.2598e-28 -3.40932e-25
          5.79084e-25 -1.22654e-24 -2.02348e-24 -3.32709e-25 -2.63223e-24 1.00757e-24 -2.78756e-23 0 2.78466e-23 -2.03828e-23 1.68094e-23 4.23103e-25
        </DataArray>
        <DataArray type="Float32" Name="velocity[2]" NumberOfComponents="1" format="ascii">
          -3.73638e-11 3.80513e-09 -2.76965e-09 -2.60371e-09 -2.87533e-09 -2.92715e-09 -2.57101e-09 -2.37747e-09 -2.36754e-09 -3.03481e-09 -3.20267e-09 -3.01584e-09
          -2.51894e-09 -2.00916e-09 -1.36598e-09 -5.87799e-10 1.47394e-08 -2.22543e-09 -2.47219e-09 -1.69042e-09 -1.51918e-09 -5.1817e-10 -1.43442e-09 -1.63697e-09
          -3.10381e-09 -3.43612e-09 -4.36842e-09 -2.92865e-09 -1.60774e-09 -1.84364e-09 -3.82622e-09 2.805e-08 -5.86428e-10 1.53893e-09 -3.52663e-09 -2.39334e-09
          -1.2665e-10 -9.22894e-10 -2.59926e-09 -4.19015e-09 -4.01057e-09 -7.55265e-09 -3.48218e-09 -2.13356e-09 -2.48673e-09 -6.90689e-09 2.88647e-08 2.85893e-10
          1.33009e-08 -5.50756e-09 -5.08064e-09 -2.42366e-09 -1.26962e-09 -3.69079e-09 -5.07211e-09 -3.66105e-09 -1.08789e-08 -2.62821e-09 -2.45681e-09 -3.26588e-09
          -1.10267e-08 -1.19218e-09 -8.9746e-10 -2.37295e-08 -1.1708e-08 -1.39279e-08 -1.08501e-08 -6.08366e-09 -4.86583e-09 -6.19016e-09 -5.39379e-09 -1.76887e-08
          -1.17388e-09 -1.64153e-09 -3.59304e-09 -3.02552e-08 -3.78729e-08 -2.3074e-09 -4.6457e-08 -1.57133e-08 -2.72894e-08 -1.72181e-08 -1.90834e-08 -4.08091e-09
          -3.8356e-09 -4.9899e-09 -2.43559e-08 -9.22829e-10 -1.3347e-09 -3.8778e-09 -3.16553e-08 -3.45186e-08 -1.66142e-09 -1.83291e-08 -1.20011e-08 -3.49656e-08
          -1.36685e-08 -3.27843e-08 -3.48002e-09 -2.63421e-09 -5.12612e-09 -2.90484e-08 -7.8759e-10 -1.13102e-09 -4.02241e-09 -2.90391e-08 -3.22325e-08 -1.97293e-09
          -6.99427e-09 -1.01748e-08 -3.79276e-08 -8.68849e-09 -4.43963e-08 -2.65111e-09 -1.88167e-09 -4.72968e-09 -3.17239e-08 -9.90428e-10 -1.49004e-09 -4.51681e-09
          -2.62651e-08 -2.93718e-08 -2.15809e-09 -3.30983e-09 -8.84572e-09 -3.9444e-08 -4.3853e-09 -5.61544e-08 -1.65218e-09 -1.19116e-09 -5.61563e-09 -2.93549e-08
          -9.31679e-10 -1.35258e-09 -4.91584e-09 -2.19269e-08 -2.81973e-08 -4.33042e-09 -2.28654e-09 -7.30713e-09 -4.0206e-08 -2.93427e-09 -6.85837e-08 -1.23188e-09
          -8.53155e-10 -9.07204e-09 -2.4161e-08 -1.11333e-09 -1.2605e-09 -5.32551e-09 -1.5486e-08 -2.46154e-08 -5.22194e-09 -2.04114e-09 -6.5275e-09 -4.03433e-08
          -1.64719e-09 -7.81154e-08 -1.96167e-09 -7.72034e-10 -1.18388e-08 -1.90023e-08 -1.88632e-09 -1.27968e-09 -5.62412e-09 -1.17359e-08 -2.15668e-08 -5.86774e-09
          -1.71157e-09 -5.6257e-09 -4.3274e-08 -1.15951e-09 -8.51598e-08 -2.77468e-09 -5.14233e-10 -1.2161e-08 -1.06394e-08 -4.27607e-09 -2.22521e-09 -5.81275e-09
          -1.02524e-08 -1.56582e-08 -6.20705e-09 -1.36892e-09 -3.66087e-09 -4.25372e-08 -2.42633e-09 -9.29629e-08 -8.60587e-09 -9.16241e-10 -1.03383e-08 -5.39739e-09
          -6.96166e-09 -3.29296e-09 -5.7348e-09 -1.00072e-08 -1.48179e-08 -4.88144e-09 -2.07366e-09 -4.31066e-09 -3.84041e-08 -1.13257e-09 -9.06361e-08 -1.61647e-08
          -2.80283e-09 -4.83746e-09 -2.42068e-09 -7.54124e-09 -5.05117e-09 -5.04268e-09 -8.20718e-09 -1.4557e-08 -3.54334e-09 -2.24144e-09 -5.94821e-09 -3.83696e-08
          -7.44121e-10 -8.31488e-08 -1.97002e-08 -5.25491e-09 -3.61264e-09 -1.71422e-09 -6.58392e-09 -7.15804e-09 -4.23236e-09 -9.69799e-09 -1.10455e-08 -2.78478e-09
          -1.49834e-09 -6.77653e-09 -3.83958e-08 -9.9151e-10 -7.20407e-08 -2.24196e-08 -8.69702e-09 -4.57215e-09 -4.11854e-09 -9.09352e-09 -1.12334e-08 -3.30701e-09
          -1.04653e-08 -8.33144e-09 -2.11235e-09 -1.80635e-09 -8.95461e-09 -3.39168e-08 -2.29456e-09 -5.80742e-08 -2.29661e-08 -1.21228e-08 -3.2336e-09 -3.59896e-09
          -8.66202e-09 -1.73477e-08 -2.47628e-09 -1.05463e-08 -6.8946e-09 -1.24204e-09 -1.70584e-09 -1.35087e-08 -2.52092e-08 -3.32948e-09 -4.58005e-08 -2.49894e-08
          -1.66902e-08 -2.92255e-09 -3.11113e-09 -5.8577e-09 -2.16833e-08 -1.99318e-09 -9.7947e-09 -5.60811e-09 -1.43381e-09 -1.36562e-09 -1.699e-08 -1.6877e-08
          -3.4308e-09 -3.34253e-08 -2.55063e-08 -2.54909e-08 -3.00706e-09 -3.2966e-09 -6.85861e-09 -2.50507e-08 -2.20256e-09 -8.21889e-09 -3.89972e-09 -1.1572e-09
          -1.1067e-09 -1.81846e-08 -1.04229e-08 -3.23524e-09 -2.50227e-08 -1.88835e-08 -4.22516e-08 -3.03851e-09 -3.07719e-09 -8.38307e-09 -2.66029e-08 -2.77932e-09
          -6.4613e-09 -3.11373e-09 -1.33863e-09 -1.07741e-09 -1.74742e-08 -6.75237e-09 -3.15845e-09 -2.0098e-08 -9.36472e-09 -5.51207e-08 -3.33721e-09 -3.81625e-09
          -1.02687e-08 -2.81503e-08 -3.09976e-09 -4.27257e-09 -2.11707e-09 -1.48921e-09 -1.22773e-09 -1.37659e-08 -5.9338e-09 -3.51733e-09 -1.91251e-08 -5.91953e-09
          -5.776e-08 -4.24072e-09 -5.78521e-09 -1.15094e-08 -3.01767e-08 -4.40231e-09 -2.10276e-09 -1.14139e-09 -1.0531e-09 -1.13324e-09 -7.93254e-09 -5.42641e-09
          -3.79343e-09 -2.04224e-08 -5.72081e-09 -5.16525e-08 -7.02244e-09 -9.98609e-09 -1.59802e-08 -3.20136e-08 -5.56439e-09 -6.52645e-10 -4.85467e-10 -3.61453e-10
          -3.63592e-10 -2.18589e-09 -2.33128e-09 -1.89935e-09 -1.17986e-08 -5.91451e-09 -3.00157e-08 -1.28533e-08 -1.1246e-08 -1.28035e-08 -1.78193e-08 -2.98788e-09
        </DataArray>
        <DataArray type="Float32" Name="z[0]" NumberOfComponents="1" format="ascii">
          0.150578 0.150579 0.15058 0.150582 0.150582 0.150583 0.150584 0.150585 0.150585 0.150586 0.150587 0.150588
          0.150589 0.150591 0.150596 0.150581 0.150582 0.150583 0.150585 0.150586 0.150587 0.150587 0.150588 0.150588
          0.150589 0.15059 0.150591 0.150593 0.150595 0.150599 0.150584 0.150585 0.150587 0.150588 0.150589 0.15059
          0.15059 0.150591 0.150592 0.150593 0.150593 0.150595 0.150596 0.150598 0.150602 0.150588 0.150589 0.15059
          0.150591 0.150592 0.150593 0.150594 0.150594 0.150595 0.150596 0.150597 0.150598 0.150599 0.150601 0.150605
          0.150591 0.150592 0.150593 0.150594 0.150595 0.150596 0.150598 0.173799 0.150598 0.150599 0.1506 0.150601
          0.150602 0.150604 0.150609 0.150594 0.150595 0.150596 0.150597 0.1506 0.217717 0.268912 0.389858 0.150601
          0.150602 0.150603 0.150604 0.150605 0.150607 0.150612 0.150597 0.150598 0.150599 0.150601 0.202772 0.406425