<?xml version="1.0"?>
<VTKFile type="UnstructuredGrid" version="0.1" byte_order="LittleEndian">
  <UnstructuredGrid>
    <Piece NumberOfCells="360" NumberOfPoints="800">
      <CellData Scalars="pressure[0]">
        <DataArray type="Float32" Name="pressure[0]" NumberOfComponents="1" format="ascii">
          2.11525e+07 2.11663e+07 2.18922e+07 2.26275e+07 2.30153e+07 2.34138e+07 2.35384e+07 2.35849e+07 2.36422e+07 2.37046e+07 2.38693e+07 2.41424e+07
          2.43455e+07 2.49312e+07 2.56506e+07 2.12014e+07 2.12217e+07 2.20179e+07 2.27858e+07 2.31928e+07 2.35929e+07 2.36844e+07 2.37208e+07 2.37793e+07
          2.38484e+07 2.40742e+07 2.43496e+07 2.45175e+07 2.51243e+07 2.58158e+07 2.13054e+07 2.13521e+07 2.21244e+07 2.29375e+07 2.33038e+07 2.368e+07
          2.37894e+07 2.3841e+07 2.39149e+07 2.40061e+07 2.43071e+07 2.46174e+07 2.47906e+07 2.53607e+07 2.60231e+07 2.1434e+07 2.14805e+07 2.1973e+07
          2.30738e+07 2.34472e+07 2.38153e+07 2.39148e+07 2.39609e+07 2.4067e+07 2.42002e+07 2.4596e+07 2.49674e+07 2.51453e+07 2.5642e+07 2.62797e+07
          2.15658e+07 2.15872e+07 1.98143e+07 2.31747e+07 2.36684e+07 2.40471e+07 2.41107e+07 2.41447e+07 2.43027e+07 2.45366e+07 2.4955e+07 2.53025e+07
          2.5489e+07 2.59594e+07 2.65323e+07 2.17737e+07 2.18165e+07 2.25146e+07 2.37538e+07 2.40693e+07 2.43126e+07 2.43549e+07 2.43895e+07 2.45909e+07
          2.49618e+07 2.53806e+07 2.56047e+07 2.58069e+07 2.62771e+07 2.68152e+07 2.20442e+07 2.20957e+07 2.32822e+07 2.42152e+07 2.4421e+07 2.45845e+07
          2.46251e+07 2.46587e+07 2.48506e+07 2.53559e+07 2.57676e+07 2.58722e+07 2.60657e+07 2.66206e+07 2.72073e+07 2.2436e+07 2.24922e+07 2.36644e+07
          2.45449e+07 2.47357e+07 2.48554e+07 2.4888e+07 2.49151e+07 2.51555e+07 2.56781e+07 2.60307e+07 2.61161e+07 2.63749e+07 2.69778e+07 2.77479e+07
          2.30036e+07 2.30687e+07 2.39963e+07 2.48068e+07 2.50421e+07 2.51393e+07 2.51683e+07 2.5194e+07 2.55323e+07 2.60554e+07 2.63096e+07 2.63547e+07
          2.66175e+07 2.7386e+07 2.82896e+07 2.36894e+07 2.37958e+07 2.42834e+07 2.49053e+07 2.53191e+07 2.5404e+07 2.55035e+07 2.5826e+07 2.60821e+07
          2.64681e+07 2.66535e+07 2.6694e+07 2.69747e+07 2.77999e+07 2.86147e+07 2.44385e+07 2.45531e+07 2.48199e+07 2.52317e+07 2.55537e+07 2.56166e+07
          2.57854e+07 2.63892e+07 2.6601e+07 2.68549e+07 2.70098e+07 2.7063e+07 2.73092e+07 2.81472e+07 2.88561e+07 2.51829e+07 2.52539e+07 2.5369e+07
          2.55935e+07 2.57826e+07 2.58234e+07 2.60619e+07 2.69728e+07 2.7113e+07 2.72597e+07 2.73771e+07 2.74483e+07 2.77097e+07 2.85026e+07 2.91153e+07
          2.57466e+07 2.57939e+07 2.58212e+07 2.59759e+07 2.6084e+07 2.61125e+07 2.63913e+07 2.75243e+07 2.75956e+07 2.77e+07 2.77999e+07 2.79408e+07
          2.81987e+07 2.88603e+07 2.9406e+07 2.61975e+07 2.62462e+07 2.62756e+07 2.64715e+07 2.65594e+07 2.6524e+07 2.68448e+07 2.79848e+07 2.80168e+07
          2.81042e+07 2.81828e+07 2.83842e+07 2.9419e+07 3.01972e+07 2.98899e+07 2.65632e+07 2.66026e+07 2.68087e+07 2.71741e+07 2.73292e+07 2.75299e+07
          2.77258e+07 2.84906e+07 2.85299e+07 2.85619e+07 2.86144e+07 2.9347e+07 3.05022e+07 3.07067e+07 3.04822e+07 2.68796e+07 2.69535e+07 2.73329e+07
          2.77678e+07 2.81455e+07 2.82354e+07 2.85753e+07 2.88609e+07 2.89135e+07 2.89961e+07 2.93118e+07 3.02111e+07 3.09204e+07 3.1295e+07 3.10414e+07
          2.74084e+07 2.74299e+07 2.78386e+07 2.83053e+07 2.87243e+07 2.87773e+07 2.8948e+07 2.91042e+07 2.91552e+07 2.92231e+07 2.97015e+07 3.07885e+07
          3.15232e+07 3.18808e+07 3.15522e+07 2.81639e+07 2.82164e+07 2.83898e+07 2.88595e+07 2.90681e+07 2.9116e+07 2.9242e+07 2.93512e+07 2.9405e+07
          2.94665e+07 3.00683e+07 3.12252e+07 3.19734e+07 3.22586e+07 3.20622e+07 2.84967e+07 2.85608e+07 2.87697e+07 2.91525e+07 2.93549e+07 2.94042e+07
          2.95064e+07 2.95952e+07 2.96437e+07 2.97025e+07 3.03677e+07 3.16511e+07 3.24185e+07 3.26242e+07 3.27836e+07 2.8764e+07 2.88231e+07 2.90376e+07
          2.94072e+07 2.95949e+07 2.96443e+07 2.9739e+07 2.98188e+07 2.98678e+07 2.99346e+07 3.0594e+07 3.20112e+07 3.28563e+07 3.30116e+07 3.34686e+07
          2.89852e+07 2.90543e+07 2.92289e+07 2.95685e+07 2.98015e+07 2.98572e+07 2.99567e+07 3.00389e+07 3.01085e+07 3.01968e+07 3.11347e+07 3.2652e+07
          3.32598e+07 3.34257e+07 3.39957e+07 2.91961e+07 2.92685e+07 2.94241e+07 2.97568e+07 2.99946e+07 3.00571e+07 3.01723e+07 3.02658e+07 3.03596e+07
          3.04637e+07 3.1734e+07 3.33111e+07 3.36795e+07 3.38878e+07 3.45086e+07 2.93855e+07 2.94508e+07 2.96417e+07 2.99941e+07 3.01874e+07 3.02611e+07
          3.03975e+07 3.05064e+07 3.06304e+07 3.07634e+07 3.22366e+07 3.38488e+07 3.41622e+07 3.4399e+07 3.48663e+07 2.95557e+07 2.96173e+07 2.97836e+07
          3.01383e+07 3.039e+07 3.04657e+07 3.062e+07 3.07477e+07 3.09014e+07 3.10846e+07 3.27959e+07 3.43116e+07 3.46612e+07 3.48728e+07 3.51784e+07
        </DataArray>
        <DataArray type="Float32" Name="pressure[1]" NumberOfComponents="1" format="ascii">
          2.11525e+07 2.11663e+07 2.18922e+07 2.26275e+07 2.30153e+07 2.34138e+07 2.35384e+07 2.35849e+07 2.36422e+07 2.37046e+07 2.38693e+07 2.41424e+07
          2.43455e+07 2.49312e+07 2.56506e+07 2.12014e+07 2.12217e+07 2.20179e+07 2.27858e+07 2.31928e+07 2.35929e+07 2.36844e+07 2.37208e+07 2.37793e+07
          2.38484e+07 2.40742e+07 2.43496e+07 2.45175e+07 2.51243e+07 2.58158e+07 2.13054e+07 2.13521e+07 2.21244e+07 2.29375e+07 2.33038e+07 2.368e+07
          2.37894e+07 2.3841e+07 2.39149e+07 2.40061e+07 2.43071e+07 2.46174e+07 2.47906e+07 2.53607e+07 2.60231e+07 2.1434e+07 2.14805e+07 2.1973e+07
          2.30738e+07 2.34472e+07 2.38153e+07 2.39148e+07 2.39609e+07 2.4067e+07 2.42002e+07 2.4596e+07 2.49674e+07 2.51453e+07 2.5642e+07 2.62797e+07
          2.15658e+07 2.15872e+07 1.98143e+07 2.31747e+07 2.36684e+07 2.40471e+07 2.41107e+07 2.41447e+07 2.43027e+07 2.45366e+07 2.4955e+07 2.53025e+07
          2.5489e+07 2.59594e+07 2.65323e+07 2.17737e+07 2.18165e+07 2.25146e+07 2.37538e+07 2.40693e+07 2.43126e+07 2.43549e+07 2.43895e+07 2.45909e+07
          2.49618e+07 2.53806e+07 2.56047e+07 2.58069e+07 2.62771e+07 2.68152e+07 2.20442e+07 2.20957e+07 2.32822e+07 2.42152e+07 2.4421e+07 2.45845e+07
          2.46251e+07 2.46587e+07 2.48506e+07 2.53559e+07 2.57676e+07 2.58722e+07 2.60657e+07 2.66206e+07 2.72073e+07 2.2436e+07 2.24922e+07 2.36644e+07
          2.45449e+07 2.47357e+07 2.48554e+07 2.4888e+07 2.49151e+07 2.51555e+07 2.56781e+07 2.60307e+07 2.61161e+07 2.63749e+07 2.69778e+07 2.77479e+07
          2.30036e+07 2.30687e+07 2.39963e+07 2.48068e+07 2.50421e+07 2.51393e+07 2.51683e+07 2.5194e+07 2.55323e+07 2.60554e+07 2.63096e+07 2.63547e+07
          2.66175e+07 2.7386e+07 2.82896e+07 2.36894e+07 2.37958e+07 2.42834e+07 2.49053e+07 2.53191e+07 2.5404e+07 2.55035e+07 2.5826e+07 2.60821e+07
          2.64681e+07 2.66535e+07 2.6694e+07 2.69747e+07 2.77999e+07 2.86147e+07 2.44385e+07 2.45531e+07 2.48199e+07 2.52317e+07 2.55537e+07 2.56166e+07
          2.57854e+07 2.63892e+07 2.6601e+07 2.68549e+07 2.70098e+07 2.7063e+07 2.73092e+07 2.81472e+07 2.88561e+07 2.51829e+07 2.52539e+07 2.5369e+07
          2.55935e+07 2.57826e+07 2.58234e+07 2.60619e+07 2.69728e+07 2.7113e+07 2.72597e+07 2.73771e+07 2.74483e+07 2.77097e+07 2.85026e+07 2.91153e+07
          2.57466e+07 2.57939e+07 2.58212e+07 2.59759e+07 2.6084e+07 2.61125e+07 2.63913e+07 2.75243e+07 2.75956e+07 2.77e+07 2.77999e+07 2.79408e+07
          2.81987e+07 2.88603e+07 2.9406e+07 2.61975e+07 2.62462e+07 2.62756e+07 2.64715e+07 2.65594e+07 2.6524e+07 2.68448e+07 2.79848e+07 2.80168e+07
          2.81042e+07 2.81828e+07 2.83842e+07 2.9419e+07 3.01972e+07 2.98899e+07 2.65632e+07 2.66026e+07 2.68087e+07 2.71741e+07 2.73292e+07 2.75299e+07
          2.77258e+07 2.84906e+07 2.85299e+07 2.85619e+07 2.86144e+07 2.9347e+07 3.05022e+07 3.07067e+07 3.04822e+07 2.68796e+07 2.69535e+07 2.73329e+07
          2.77678e+07 2.81455e+07 2.82354e+07 2.85753e+07 2.88609e+07 2.89135e+07 2.89961e+07 2.93118e+07 3.02111e+07 3.09204e+07 3.1295e+07 3.10414e+07
          2.74084e+07 2.74299e+07 2.78386e+07 2.83053e+07 2.87243e+07 2.87773e+07 2.8948e+07 2.91042e+07 2.91552e+07 2.92231e+07 2.97015e+07 3.07885e+07
          3.15232e+07 3.18808e+07 3.15522e+07 2.81639e+07 2.82164e+07 2.83898e+07 2.88595e+07 2.90681e+07 2.9116e+07 2.9242e+07 2.93512e+07 2.9405e+07
          2.94665e+07 3.00683e+07 3.12252e+07 3.19734e+07 3.22586e+07 3.20622e+07 2.84967e+07 2.85608e+07 2.87697e+07 2.91525e+07 2.93549e+07 2.94042e+07
          2.95064e+07 2.95952e+07 2.96437e+07 2.97025e+07 3.03677e+07 3.16511e+07 3.24185e+07 3.26242e+07 3.27836e+07 2.8764e+07 2.88231e+07 2.90376e+07
          2.94072e+07 2.95949e+07 2.96443e+07 2.9739e+07 2.98188e+07 2.98678e+07 2.99346e+07 3.0594e+07 3.20112e+07 3.28563e+07 3.30116e+07 3.34686e+07
          2.89852e+07 2.90543e+07 2.92289e+07 2.95685e+07 2.98015e+07 2.98572e+07 2.99567e+07 3.00389e+07 3.01085e+07 3.01968e+07 3.11347e+07 3.2652e+07
          3.32598e+07 3.34257e+07 3.39957e+07 2.91961e+07 2.92685e+07 2.94241e+07 2.97568e+07 2.99946e+07 3.00571e+07 3.01723e+07 3.02658e+07 3.03596e+07
          3.04637e+07 3.1734e+07 3.33111e+07 3.36795e+07 3.38878e+07 3.45086e+07 2.93855e+07 2.94508e+07 2.96417e+07 2.99941e+07 3.01874e+07 3.02611e+07
          3.03975e+07 3.05064e+07 3.06304e+07 3.07634e+07 3.22366e+07 3.38488e+07 3.41622e+07 3.4399e+07 3.48663e+07 2.95557e+07 2.96173e+07 2.97836e+07
          3.01383e+07 3.039e+07 3.04657e+07 3.062e+07 3.07477e+07 3.09014e+07 3.10846e+07 3.27959e+07 3.43116e+07 3.46612e+07 3.48728e+07 3.51784e+07
        </DataArray>
        <DataArray type="Float32" Name="pressure[2]" NumberOfComponents="1" format="ascii">
          2.11525e+07 2.11663e+07 2.18922e+07 2.26275e+07 2.30153e+07 2.34138e+07 2.35384e+07 2.35849e+07 2.36422e+07 2.37046e+07 2.38693e+07 2.41424e+07
          2.43455e+07 2.49312e+07 2.56506e+07 2.12014e+07 2.12217e+07 2.20179e+07 2.27858e+07 2.31928e+07 2.35929e+07 2.36844e+07 2.37208e+07 2.37793e+07
          2.38484e+07 2.40742e+07 2.43496e+07 2.45175e+07 2.51243e+07 2.58158e+07 2.13054e+07 2.13521e+07 2.21244e+07 2.29375e+07 2.33038e+07 2.368e+07
          2.37894e+07 2.3841e+07 2.39149e+07 2.40061e+07 2.43071e+07 2.46174e+07 2.47906e+07 2.53607e+07 2.60231e+07 2.1434e+07 2.14805e+07 2.1973e+07
          2.30738e+07 2.34472e+07 2.38153e+07 2.39148e+07 2.39609e+07 2.4067e+07 2.42002e+07 2.4596e+07 2.49674e+07 2.51453e+07 2.5642e+07 2.62797e+07
          2.15658e+07 2.15872e+07 1.98143e+07 2.31747e+07 2.36684e+07 2.40471e+07 2.41107e+07 2.41447e+07 2.43027e+07 2.45366e+07 2.4955e+07 2.53025e+07
          2.5489e+07 2.59594e+07 2.65323e+07 2.17737e+07 2.18165e+07 2.25146e+07 2.37538e+07 2.40693e+07 2.43126e+07 2.43549e+07 2.43895e+07 2.45909e+07
          2.49618e+07 2.53806e+07 2.56047e+07 2.58069e+07 2.62771e+07 2.68152e+07 2.20442e+07 2.20957e+07 2.32822e+07 2.42152e+07 2.4421e+07 2.45845e+07
          2.46251e+07 2.46587e+07 2.48506e+07 2.53559e+07 2.57676e+07 2.58722e+07 2.60657e+07 2.66206e+07 2.72073e+07 2.2436e+07 2.24922e+07 2.36644e+07
          2.45449e+07 2.47357e+07 2.48554e+07 2.4888e+07 2.49151e+07 2.51555e+07 2.56781e+07 2.60307e+07 2.61161e+07 2.63749e+07 2.69778e+07 2.77479e+07
          2.30036e+07 2.30687e+07 2.39963e+07 2.48068e+07 2.50421e+07 2.51393e+07 2.51683e+07 2.5194e+07 2.55323e+07 2.60554e+07 2.63096e+07 2.63547e+07
          2.66175e+07 2.7386e+07 2.82896e+07 2.36894e+07 2.37958e+07 2.42834e+07 2.49053e+07 2.53191e+07 2.5404e+07 2.55035e+07 2.5826e+07 2.60821e+07
          2.64681e+07 2.66535e+07 2.6694e+07 2.69747e+07 2.77999e+07 2.86147e+07 2.44385e+07 2.45531e+07 2.48199e+07 2.52317e+07 2.55537e+07 2.56166e+07
          2.57854e+07 2.63892e+07 2.6601e+07 2.68549e+07 2.70098e+07 2.7063e+07 2.73092e+07 2.81472e+07 2.88561e+07 2.51829e+07 2.52539e+07 2.5369e+07
          2.55935e+07 2.57826e+07 2.58234e+07 2.60619e+07 2.69728e+07 2.7113e+07 2.72597e+07 2.73771e+07 2.74483e+07 2.77097e+07 2.85026e+07 2.91153e+07
          2.57466e+07 2.57939e+07 2.58212e+07 2.59759e+07 2.6084e+07 2.61125e+07 2.63913e+07 2.75243e+07 2.75956e+07 2.77e+07 2.77999e+07 2.79408e+07
          2.81987e+07 2.88603e+07 2.9406e+07 2.61975e+07 2.62462e+07 2.62756e+07 2.64715e+07 2.65594e+07 2.6524e+07 2.68448e+07 2.79848e+07 2.80168e+07
          2.81042e+07 2.81828e+07 2.83842e+07 2.9419e+07 3.01972e+07 2.98899e+07 2.65632e+07 2.66026e+07 2.68087e+07 2.71741e+07 2.73292e+07 2.75299e+07
          2.77258e+07 2.84906e+07 2.85299e+07 2.85619e+07 2.86144e+07 2.9347e+07 3.05022e+07 3.07067e+07 3.04822e+07 2.68796e+07 2.69535e+07 2.73329e+07
          2.77678e+07 2.81455e+07 2.82354e+07 2.85753e+07 2.88609e+07 2.89135e+07 2.89961e+07 2.93118e+07 3.02111e+07 3.09204e+07 3.1295e+07 3.10414e+07
          2.74084e+07 2.74299e+07 2.78386e+07 2.83053e+07 2.87243e+07 2.87773e+07 2.8948e+07 2.91042e+07 2.91552e+07 2.92231e+07 2.97015e+07 3.07885e+07
          3.15232e+07 3.18808e+07 3.15522e+07 2.81639e+07 2.82164e+07 2.83898e+07 2.88595e+07 2.90681e+07 2.9116e+07 2.9242e+07 2.93512e+07 2.9405e+07
          2.94665e+07 3.00683e+07 3.12252e+07 3.19734e+07 3.22586e+07 3.20622e+07 2.84967e+07 2.85608e+07 2.87697e+07 2.91525e+07 2.93549e+07 2.94042e+07
          2.95064e+07 2.95952e+07 2.96437e+07 2.97025e+07 3.03677e+07 3.16511e+07 3.24185e+07 3.26242e+07 3.27836e+07 2.8764e+07 2.88231e+07 2.90376e+07
          2.94072e+07 2.95949e+07 2.96443e+07 2.9739e+07 2.98188e+07 2.98678e+07 2.99346e+07 3.0594e+07 3.20112e+07 3.28563e+07 3.30116e+07 3.34686e+07
          2.89852e+07 2.90543e+07 2.92289e+07 2.95685e+07 2.98015e+07 2.98572e+07 2.99567e+07 3.00389e+07 3.01085e+07 3.01968e+07 3.11347e+07 3.2652e+07
          3.32598e+07 3.34257e+07 3.39957e+07 2.91961e+07 2.92685e+07 2.94241e+07 2.97568e+07 2.99946e+07 3.00571e+07 3.01723e+07 3.02658e+07 3.03596e+07
          3.04637e+07 3.1734e+07 3.33111e+07 3.36795e+07 3.38878e+07 3.45086e+07 2.93855e+07 2.94508e+07 2.96417e+07 2.99941e+07 3.01874e+07 3.02611e+07
          3.03975e+07 3.05064e+07 3.06304e+07 3.07634e+07 3.22366e+07 3.38488e+07 3.41622e+07 3.4399e+07 3.48663e+07 2.95557e+07 2.96173e+07 2.97836e+07
          3.01383e+07 3.039e+07 3.04657e+07 3.062e+07 3.07477e+07 3.09014e+07 3.10846e+07 3.27959e+07 3.43116e+07 3.46612e+07 3.48728e+07 3.51784e+07
        </DataArray>
        <DataArray type="Float32" Name="velocity[0]" NumberOfComponents="1" format="ascii">
          -1.79025e-08 6.55213e-08 6.75334e-11 -5.96816e-09 -3.53929e-10 -1.55331e-09 -8.69956e-10 9.27521e-10 1.428e-09 -4.82295e-10 -1.78531e-09 -2.39527e-09
          -1.6792e-09 -5.70527e-10 -2.51597e-09 -2.62392e-08 1.53094e-07 1.90022e-10 -2.36966e-08 -5.905e-11 1.29831e-09 6.48356e-09 4.51859e-09 2.88939e-09
          -2.63156e-09 -3.72704e-09 -1.02872e-08 -6.37362e-09 -1.67279e-09 -6.66782e-09 -1.45522e-08 1.84053e-07 1.0816e-09 -3.36739e-09 2.55249e-10 3.35194e-09
          1.02968e-08 7.34175e-09 3.27007e-10 -6.30356e-09 -4.34565e-09 -2.56623e-08 -9.08587e-09 -3.52236e-09 -9.99628e-09 -1.07132e-08 1.97894e-07 7.91076e-09
          8.31977e-08 -2.44465e-09 -1.35082e-08 -1.45882e-08 -7.99126e-09 -5.51255e-09 -1.30385e-08 -5.46945e-09 -4.35254e-08 -6.43322e-09 -5.1706e-09 -1.36666e-08
          -9.67126e-08 -3.41018e-08 -3.10384e-10 -1.45561e-07 -1.74763e-08 -7.05334e-08 -8.00858e-08 -6.61871e-08 -7.40685e-09 -1.29853e-08 -7.65332e-09 -7.27156e-08
          -3.19089e-09 -4.72431e-09 -1.68835e-08 -1.94129e-07 -2.45533e-07 -8.97148e-09 -2.97407e-07 -3.65155e-08 -2.07108e-07 -1.16264e-07 -1.74732e-07 -4.73028e-09
          -5.61762e-09 -1.13392e-08 -1.04754e-07 -1.84182e-09 -3.74936e-09 -1.90722e-08 -1.942e-07 -2.11152e-07 -2.60104e-09 -9.60914e-08 -3.39158e-08 -3.57157e-07
          -9.36734e-08 -2.98776e-07 -3.50457e-09 -2.35752e-09 -1.37441e-08 -1.26435e-07 -1.62446e-09 -3.71397e-09 -2.06093e-08 -1.75011e-07 -1.90589e-07 -1.99738e-09
          -1.55989e-08 -2.07558e-08 -4.36964e-07 -5.62666e-08 -3.71268e-07 -3.49192e-09 -1.94026e-09 -1.56846e-08 -1.42478e-07 -1.36401e-09 -3.86255e-09 -2.23562e-08
          -1.56339e-07 -1.69109e-07 -2.41592e-09 -2.16294e-09 -1.49149e-08 -4.84151e-07 -2.3716e-08 -3.71819e-07 -3.78737e-09 -2.45923e-09 -2.74107e-08 -1.40078e-07
          -1.30514e-09 -3.51977e-09 -2.46617e-08 -1.26509e-07 -1.55382e-07 -8.77845e-09 -4.94826e-10 -1.16803e-08 -4.94338e-07 -9.49838e-09 -4.02248e-07 -4.61663e-09
          -2.93832e-09 -4.76978e-08 -1.21656e-07 -2.14961e-09 -2.97965e-09 -2.69787e-08 -9.26141e-08 -1.4765e-07 -1.9829e-08 -1.39095e-09 -1.11575e-08 -4.67299e-07
          -3.14153e-09 -4.66209e-07 -1.04005e-08 -4.27527e-09 -6.11742e-08 -1.01779e-07 -5.81873e-09 -3.3928e-09 -2.91018e-08 -7.37517e-08 -1.4048e-07 -2.73774e-08
          -1.12412e-09 -1.77959e-08 -4.34996e-07 -2.38001e-09 -4.23011e-07 -4.70217e-08 -8.42029e-09 -6.4495e-08 -7.62056e-08 -1.97977e-08 -6.07833e-09 -3.14837e-08
          -6.79777e-08 -1.43398e-07 -2.42387e-08 -2.26337e-09 -3.09056e-08 -3.69434e-07 -3.63257e-09 -3.17739e-07 -1.18109e-07 -1.55058e-08 -5.43984e-08 -3.78008e-08
          -3.317e-08 -1.64341e-08 -3.5557e-08 -6.71599e-08 -1.53261e-07 -1.43544e-08 -5.92742e-09 -6.76776e-08 -2.67142e-07 -7.25987e-09 -3.29034e-07 -1.21791e-07
          -4.67707e-08 -4.36235e-08 -1.1799e-08 -3.54854e-08 -3.3313e-08 -3.68976e-08 -7.13626e-08 -1.42481e-07 -8.79097e-09 -9.54375e-09 -7.4802e-08 -2.338e-07
          -6.39891e-09 -4.06842e-07 -9.66479e-08 -5.44154e-08 -3.27904e-08 -8.62137e-09 -3.68075e-08 -5.06224e-08 -3.32605e-08 -5.80381e-08 -1.35821e-07 -8.00753e-09
          -1.44403e-08 -5.00104e-08 -2.59259e-07 -3.23131e-09 -3.92784e-07 -1.10297e-07 -3.6346e-08 -1.40212e-08 -9.05039e-09 -4.37504e-08 -7.44925e-08 -2.80448e-08
          -5.27563e-08 -9.97229e-08 -1.07644e-08 -1.6955e-08 -6.60564e-08 -2.37974e-07 -4.27447e-09 -3.2457e-07 -1.14203e-07 -5.30204e-08 -4.61401e-09 -6.44711e-09
          -3.59349e-08 -1.10506e-07 -2.23098e-08 -6.52771e-08 -4.6596e-08 -9.39001e-09 -9.53729e-09 -1.00696e-07 -1.77293e-07 -5.89018e-09 -2.5779e-07 -1.28638e-07
          -8.44667e-08 -3.04043e-09 -4.12714e-09 -2.31032e-08 -1.4426e-07 -1.74376e-08 -6.1002e-08 -3.07862e-08 -4.73267e-09 -2.7012e-09 -1.21022e-07 -1.1336e-07
          -6.22116e-09 -1.91996e-07 -1.3306e-07 -1.38322e-07 -1.75301e-09 -3.36471e-09 -3.00815e-08 -1.64764e-07 -1.52891e-08 -5.22973e-08 -2.14464e-08 -2.35479e-09
          -1.00083e-09 -1.25051e-07 -6.32217e-08 -5.14139e-09 -1.42954e-07 -8.78722e-08 -2.46041e-07 -3.11927e-09 -4.791e-09 -4.46945e-08 -1.74693e-07 -1.64804e-08
          -4.05018e-08 -1.43712e-08 -1.74593e-09 -2.72027e-10 -1.14e-07 -3.23105e-08 -4.35797e-09 -1.13645e-07 -3.73146e-08 -3.44889e-07 -4.91965e-09 -8.83646e-09
          -5.43595e-08 -1.82553e-07 -1.89617e-08 -2.56062e-08 -7.36504e-09 -2.51099e-09 -9.82069e-10 -8.31917e-08 -2.15982e-08 -4.25863e-09 -1.08932e-07 -2.04406e-08
          -3.6616e-07 -4.49197e-09 -1.69767e-08 -5.95059e-08 -1.9056e-07 -2.35505e-08 -1.1995e-08 -2.95962e-09 -1.12539e-09 -6.48861e-10 -4.11508e-08 -1.59856e-08
          -3.50374e-09 -1.15986e-07 -1.65636e-08 -3.16194e-07 -6.2359e-09 -2.92711e-08 -7.80642e-08 -1.98558e-07 -3.07686e-08 -3.18502e-09 -6.69005e-10 2.36322e-10
          8.11794e-11 -9.62278e-09 -6.07629e-09 -1.28398e-09 -5.92757e-08 -7.72808e-09 -1.36838e-07 -4.11502e-09 -1.77584e-08 -4.66225e-08 -1.02055e-07 -1.72797e-08
        </DataArray>
        <DataArray type="Float32" Name="velocity[1]" NumberOfComponents="1" format="ascii">
          2.78226e-24 1.03653e-23 1.38462e-25 -9.27523e-25 5.50047e-26 0 1.35202e-25 -8.70097e-26 8.65104e-26 5.31074e-24 -3.49563e-24 6.11762e-26
          2.24992e-24 -8.72324e-25 3.90616e-25 -1.48664e-24 3.25679e-24 1.38089e-25 -1.82769e-24 -2.131e-25 7.44755e-24 9.59024e-25 1.88142e-25 -7.01002e-24
          -1.96098e-25 0 -6.03617e-26 6.07822e-26 4.81138e-28 2.54237e-25 -3.29649e-25 -1.02148e-23 -1.95864e-24 4.98709e-24 -2.1816e-25 0
          5.76274e-25 -8.60482e-26 -4.03412e-25 0 6.50257e-24 -1.0081e-23 0 1.05389e-24 -2.63902e-25 -4.76289e-25 1.39794e-23 -1.7453e-24
          -8.25687e-24 5.73887e-25 1.10014e-23 -1.99134e-23 2.55032e-23 -3.34966e-24 1.07742e-24 3.09059e-24 -4.137e-24 2.92407e-24 -1.23112e-24 9.22496e-25
          -1.37173e-25 -7.36428e-23 6.85614e-24 1.27087e-23 -4.80453e-25 -6.93458e-24 1.56829e-25 -1.14699e-25 1.86611e-26 -5.55286e-24 3.67607e-24 -6.5921e-24
          -5.42871e-28 1.20318e-25 -1.40824e-24 -1.79594e-25 7.92515e-24 -7.33561e-25 9.49819e-24 2.04757e-25 -1.50771e-23 0 -1.67257e-25 4.35826e-26
          4.00913e-25 -3.38624e-25 4.95482e-24 -1.39787e-24 8.26909e-25 1.40741e-24 -1.2994e-24 1.66299e-24 0 1.11996e-23 -1.26452e-24 -2.48254e-23
          -1.19823e-25 -1.33699e-25 -2.57755e-24 7.08358e-28 -5.17627e-28 -7.79268e-28 3.75993e-26 -3.21796e-28 -1.5558e-24 -2.25686e-25 1.40372e-23 1.69686e-24
          3.17913e-24 -7.47584e-26 2.84046e-23 -1.02538e-27 -9.25506e-28 3.39179e-26 -4.07981e-26 -3.24567e-24 -1.05628e-23 -4.62033e-28 -3.5959e-25 1.8273e-24
          -1.64875e-24 -9.59891e-24 -1.14851e-25 -2.1901e-24 -2.56358e-25 -9.60853e-26 0 0 -1.2215e-24 5.63598e-28 1.11114e-24 2.36045e-24
          -9.50422e-28 5.04036e-26 -2.87551e-28 -1.14405e-23 9.06775e-25 1.46362e-24 -1.86103e-25 -2.44743e-24 4.84585e-24 -9.3036e-24 6.86732e-24 1.01755e-24
          -3.44559e-26 -9.41663e-25 2.67567e-24 -8.29587e-25 0 -2.00542e-24 4.40813e-24 1.1943e-25 7.60328e-25 -1.31146e-25 1.85701e-24 1.87533e-27
          -7.13458e-24 6.15936e-24 8.34772e-25 1.74307e-25 7.40231e-25 6.95418e-24 2.00133e-24 -2.96493e-25 1.48246e-25 -5.28895e-24 1.04348e-24 -4.14072e-25
          -1.38539e-26 -4.70308e-26 -3.23661e-23 4.14773e-26 -9.7868e-24 -4.33996e-24 -4.70835e-25 -1.35218e-24 3.97736e-24 -1.91539e-24 1.07733e-24 -2.22438e-25
          5.27487e-24 1.06558e-23 0 -1.70843e-25 1.16943e-24 7.32721e-24 1.50638e-25 -6.56901e-24 -6.19009e-24 -5.39686e-28 -3.43369e-24 -1.23713e-24
          4.11414e-25 -6.33247e-25 -5.26351e-28 -1.13736e-25 1.12091e-27 4.00816e-25 -7.96517e-25 -2.56484e-27 2.99259e-23 4.09318e-25 8.3282e-24 1.6878e-23
          -6.90628e-24 3.43436e-24 3.15996e-24 -5.05148e-24 2.52846e-28 -2.76554e-24 -5.16105e-24 -9.95469e-24 -5.15805e-28 6.59893e-25 -3.43742e-24 1.97507e-27
          -5.44344e-25 3.36442e-24 1.79925e-25 0 0 5.96574e-25 4.56318e-24 -6.29573e-25 5.1695e-24 0 -1.19669e-24 0
          -1.42087e-24 -4.16278e-25 1.73981e-27 5.20624e-26 -5.95109e-24 -1.93979e-28 -6.28826e-28 -5.82881e-28 4.96334e-24 8.53554e-29 -1.45803e-24 -2.40286e-24
          2.01763e-29 6.80624e-24 -5.04218e-28 2.06852e-25 2.90883e-24 -1.19768e-23 0 -1.25533e-23 0 9.82815e-28 3.46771e-24 -4.30627e-24
          -2.03496e-24 2.52372e-28 1.51197e-24 0 4.3457e-24 0 1.21494e-24 3.20399e-24 4.72747e-24 1.41379e-25 -5.7273e-24 -5.62344e-24
          -2.52756e-24 2.09455e-25 7.2346e-26 -1.19527e-30 -2.00133e-24 -1.19804e-24 4.44348e-24 -1.80027e-24 2.26559e-24 -2.12838e-24 6.84246e-25 1.0997e-23
          -8.98337e-26 -4.49755e-24 1.10183e-23 6.2429e-24 -3.75837e-24 8.2411e-26 1.04382e-24 -5.29905e-28 1.17806e-24 -1.53686e-28 -3.91291e-24 8.39056e-25
          -1.91933e-24 -1.16884e-25 -3.41506e-24 -1.56218e-25 -6.24977e-24 -5.66461e-24 1.09022e-23 3.0818e-25 4.02195e-24 1.22704e-24 -4.10712e-25 -9.72949e-25
          -1.0738e-24 6.56208e-25 0 -3.62196e-26 -1.65872e-24 5.32152e-24 -9.35644e-24 9.35543e-24 -6.59714e-24 1.96645e-27 0 0
          2.75119e-25 -8.58476e-28 1.5637e-24 -1.24116e-24 -1.29859e-24 1.20422e-24 -2.02972e-24 -1.29608e-24 -1.54027e-24 2.86631e-26 6.98266e-25 -4.30269e-24
          1.53542e-23 -2.91968e-25 -7.3323e-24 5.24207e-25 1.06653e-24 -1.05185e-28 -8.74228e-25 1.44065e-28 1.01349e-28 1.26368e-25 -3.40415e-24 5.95413e-25
          -1.45431e-25 1.16944e-23 -4.84852e-24 0 -3.09913e-25 -9.70106e-25 7.46483e-24 -8.63772e-25 0 -4.94976e-25 6.427e-29 -4.03839e-25
          6.87485e-25 -1.49559e-24 -2.44531e-24 -3.98522e-25 -3.08046e-24 1.20103e-24 -3.32866e-23 0 3.32869e-23 -2.44112e-23 2.01674e-23 5.06943e-25
        </DataArray>
        <DataArray type="Float32" Name="velocity[2]" NumberOfComponents="1" format="ascii">
          -1.94222e-09 1.07654e-08 -3.92224e-09 -4.56415e-09 -3.16024e-09 -3.20066e-09 -2.92993e-09 -2.58584e-09 -2.5648e-09 -2.9105e-09 -2.95025e-09 -2.74388e-09
          -2.30824e-09 -1.87515e-09 -1.28315e-09 -5.23968e-09 2.4722e-08 -3.21552e-09 -6.71658e-09 -1.90585e-09 -1.83499e-09 -1.29411e-09 -1.90299e-09 -2.22068e-09
          -3.07135e-09 -3.13041e-09 -3.89188e-09 -2.62159e-09 -1.47645e-09 -1.72193e-09 -2.68121e-09 3.17934e-08 -9.20396e-10 -3.27236e-09 -4.11797e-09 -3.36284e-09
          -1.85702e-09 -2.23552e-09 -3.27653e-09 -4.14741e-09 -3.63099e-09 -6.711e-09 -3.17181e-09 -1.97109e-09 -2.32779e-09 -1.97854e-09 3.44674e-08 2.77825e-10
          1.04365e-08 -7.14127e-09 -8.19409e-09 -7.10154e-09 -4.9462e-09 -3.85356e-09 -4.73172e-09 -3.10966e-09 -9.2707e-09 -2.40904e-09 -2.28756e-09 -3.06955e-09
          -1.1147e-08 1.24322e-09 -1.17841e-09 -3.4703e-08 -1.54482e-08 -2.20127e-08 -2.04364e-08 -1.55997e-08 -4.12038e-09 -5.31394e-09 -4.44287e-09 -1.45462e-08
          -1.07323e-09 -1.53194e-09 -3.39108e-09 -3.35078e-08 -4.30529e-08 -2.95323e-09 -6.06661e-08 -2.06947e-08 -4.59075e-08 -2.56407e-08 -3.43767e-08 -2.6635e-09
          -2.97138e-09 -3.94621e-09 -1.96308e-08 -8.63946e-10 -1.26323e-09 -3.68045e-09 -3.48014e-08 -3.87012e-08 -2.29085e-09 -2.223e-08 -1.51433e-08 -6.98927e-08
          -2.10951e-08 -5.60324e-08 -2.38488e-09 -2.20308e-09 -4.22227e-09 -2.34267e-08 -7.51109e-10 -1.07594e-09 -3.83088e-09 -3.1401e-08 -3.51659e-08 -2.31672e-09
          -5.13771e-09 -6.73926e-09 -7.92161e-08 -1.16052e-08 -6.74e-08 -2.17414e-09 -1.89658e-09 -4.20183e-09 -2.61399e-08 -9.77955e-10 -1.45365e-09 -4.32943e-09
          -2.80702e-08 -3.12159e-08 -2.1509e-09 -2.18555e-09 -4.66499e-09 -8.63881e-08 -4.35893e-09 -6.63323e-08 -1.78926e-09 -1.51971e-09 -5.27283e-09 -2.49562e-08
          -9.162e-10 -1.33146e-09 -4.73052e-09 -2.36055e-08 -3.00956e-08 -3.76292e-09 -1.65924e-09 -3.65531e-09 -8.94627e-08 -4.72576e-09 -7.29441e-08 -1.62472e-09
          -1.29448e-09 -8.52811e-09 -2.15687e-08 -1.11791e-09 -1.27208e-09 -5.14805e-09 -1.71688e-08 -2.78631e-08 -5.05156e-09 -1.39104e-09 -3.07166e-09 -8.40941e-08
          -2.9208e-09 -8.40738e-08 -2.84906e-09 -1.40205e-09 -1.11864e-08 -1.86852e-08 -2.08883e-09 -1.33866e-09 -5.44959e-09 -1.33838e-08 -2.56969e-08 -5.69048e-09
          -8.28378e-10 -3.46811e-09 -7.75968e-08 -2.16499e-09 -7.80082e-08 -1.15123e-08 -2.70863e-09 -1.24683e-08 -1.55175e-08 -5.84749e-09 -2.36985e-09 -6.02872e-09
          -1.19922e-08 -2.49821e-08 -4.15777e-09 -7.29475e-10 -5.32303e-09 -6.68131e-08 -4.48121e-09 -6.09691e-08 -2.45046e-08 -3.85942e-09 -1.12008e-08 -1.02324e-08
          -1.05504e-08 -6.03793e-09 -7.14647e-09 -1.18888e-08 -2.69375e-08 -2.62298e-09 -1.36299e-09 -1.0561e-08 -4.67406e-08 -3.42665e-09 -5.86557e-08 -2.28584e-08
          -1.07126e-08 -9.1055e-09 -3.77766e-09 -8.22372e-09 -6.43373e-09 -6.0708e-09 -1.22543e-08 -2.51833e-08 -2.45436e-09 -2.66179e-09 -1.52956e-08 -4.34921e-08
          -2.46743e-09 -7.25255e-08 -1.65205e-08 -9.19532e-09 -6.81401e-09 -3.14675e-09 -7.95121e-09 -8.82237e-09 -5.08644e-09 -1.14509e-08 -2.59978e-08 -3.01444e-09
          -3.89614e-09 -1.01183e-08 -4.69886e-08 -1.66385e-09 -7.13672e-08 -2.24178e-08 -9.15929e-09 -5.70154e-09 -5.39463e-09 -1.11902e-08 -1.37345e-08 -3.98337e-09
          -8.43753e-09 -1.80439e-08 -4.3679e-09 -5.3466e-09 -1.30728e-08 -4.35511e-08 -3.48514e-09 -6.07427e-08 -2.43697e-08 -1.29017e-08 -3.81836e-09 -4.32312e-09
          -1.05207e-08 -2.10629e-08 -2.98244e-09 -1.15409e-08 -8.74347e-09 -2.94738e-09 -3.57585e-09 -1.90992e-08 -3.34206e-08 -4.8529e-09 -5.02129e-08 -2.76408e-08
          -1.84115e-08 -3.44508e-09 -3.69322e-09 -7.03587e-09 -2.62361e-08 -2.40085e-09 -1.10091e-08 -6.2606e-09 -2.09757e-09 -1.88176e-09 -2.25475e-08 -2.22753e-08
          -4.71248e-09 -3.82577e-08 -2.91607e-08 -2.91084e-08 -3.56114e-09 -3.91528e-09 -8.21004e-09 -3.02391e-08 -2.6527e-09 -9.54568e-09 -4.57493e-09 -1.45164e-09
          -1.36148e-09 -2.33036e-08 -1.34466e-08 -4.2441e-09 -2.90945e-08 -2.2105e-08 -4.9377e-08 -3.61062e-09 -3.66241e-09 -1.00549e-08 -3.20676e-08 -3.34576e-09
          -7.60239e-09 -3.66635e-09 -1.60321e-09 -1.2837e-09 -2.18952e-08 -8.4765e-09 -3.97176e-09 -2.34954e-08 -1.11273e-08 -6.50598e-08 -3.97353e-09 -4.54946e-09
          -1.23331e-08 -3.38921e-08 -3.73072e-09 -5.04761e-09 -2.50262e-09 -1.76738e-09 -1.45535e-09 -1.70015e-08 -7.29728e-09 -4.31785e-09 -2.26505e-08 -7.09289e-09
          -6.85182e-08 -5.05653e-09 -6.91028e-09 -1.38212e-08 -3.62961e-08 -5.29524e-09 -2.49009e-09 -1.35287e-09 -1.24891e-09 -1.34383e-09 -9.69441e-09 -6.60394e-09
          -4.60667e-09 -2.43974e-08 -6.86377e-09 -6.14648e-08 -8.38159e-09 -1.19414e-08 -1.91579e-08 -3.84664e-08 -6.68933e-09 -7.73954e-10 -5.76055e-10 -4.29328e-10
          -4.32072e-10 -2.65229e-09 -2.82361e-09 -2.29627e-09 -1.41369e-08 -7.09179e-09 -3.57928e-08 -1.5348e-08 -1.34417e-08 -1.53294e-08 -2.13924e-08 -3.59065e-09
        </DataArray>
        <DataArray type="Float32" Name="z[0]" NumberOfComponents="1" format="ascii">
          0.150578 0.150579 0.15058 0.150582 0.150582 0.150583 0.150584 0.150585 0.150585 0.150586 0.150587 0.150588
          0.150589 0.150591 0.150596 0.150581 0.150582 0.150583 0.150585 0.150586 0.150587 0.150587 0.150588 0.150588
          0.150589 0.15059 0.150591 0.150593 0.150595 0.150599 0.150584 0.150585 0.150587 0.150588 0.150589 0.15059
          0.15059 0.150591 0.150592 0.150593 0.150593 0.150595 0.150596 0.150598 0.150602 0.150588 0.150589 0.15059
          0.150591 0.150592 0.150593 0.150594 0.150594 0.150595 0.150596 0.150597 0.150598 0.150599 0.150601 0.150605
          0.150591 0.150592 0.150593 0.150594 0.150595 0.150596 0.150597 0.150597 0.150598 0.150599 0.1506 0.150601
          0.150602 0.150604 0.150609 0.150594 0.150595 0.150596 0.150597 0.150598 0.150599 0.1506 0.1506 0.150601
          0.150602 0.150603 0.150604 0.150605 0.150607 0.150612 0.150597 0.150598 0.150599 0.150601 0.150601 0.150602