<?xml version="1.0"?>
<VTKFile type="UnstructuredGrid" version="0.1" byte_order="LittleEndian">
  <UnstructuredGrid>
    <Piece NumberOfCells="360" NumberOfPoints="800">
      <CellData Scalars="pressure[0]">
        <DataArray type="Float32" Name="pressure[0]" NumberOfComponents="1" format="ascii">
          2.10507e+07 2.10652e+07 2.16933e+07 2.23466e+07 2.27233e+07 2.31426e+07 2.32734e+07 2.33221e+07 2.33811e+07 2.34463e+07 2.36272e+07 2.39273e+07
          2.41498e+07 2.47611e+07 2.54937e+07 2.10953e+07 2.11093e+07 2.18038e+07 2.2493e+07 2.29042e+07 2.33223e+07 2.34181e+07 2.3456e+07 2.35167e+07
          2.35899e+07 2.38407e+07 2.41444e+07 2.43253e+07 2.49538e+07 2.56595e+07 2.11475e+07 2.11777e+07 2.18859e+07 2.2641e+07 2.30093e+07 2.34013e+07
          2.35158e+07 2.35709e+07 2.36491e+07 2.37492e+07 2.40879e+07 2.44317e+07 2.4613e+07 2.51954e+07 2.58686e+07 2.12616e+07 2.13074e+07 2.17553e+07
          2.27766e+07 2.3143e+07 2.3523e+07 2.36268e+07 2.36766e+07 2.37951e+07 2.39493e+07 2.44005e+07 2.47695e+07 2.49656e+07 2.54816e+07 2.61281e+07
          2.13939e+07 2.14173e+07 1.98027e+07 2.28791e+07 2.33415e+07 2.37426e+07 2.38098e+07 2.38463e+07 2.40338e+07 2.4318e+07 2.47793e+07 2.51464e+07
          2.53352e+07 2.58082e+07 2.63834e+07 2.15965e+07 2.16395e+07 2.22637e+07 2.3416e+07 2.37496e+07 2.40103e+07 2.40523e+07 2.40878e+07 2.4332e+07
          2.47596e+07 2.52285e+07 2.54726e+07 2.56734e+07 2.61362e+07 2.66692e+07 2.18574e+07 2.19081e+07 2.29893e+07 2.39058e+07 2.4118e+07 2.42954e+07
          2.43278e+07 2.43532e+07 2.45924e+07 2.51761e+07 2.56468e+07 2.57588e+07 2.59493e+07 2.64911e+07 2.70658e+07 2.22334e+07 2.22885e+07 2.34184e+07
          2.4263e+07 2.44572e+07 2.45843e+07 2.46204e+07 2.46831e+07 2.49548e+07 2.55389e+07 2.59296e+07 2.60185e+07 2.62717e+07 2.68589e+07 2.76124e+07
          2.27814e+07 2.28444e+07 2.37641e+07 2.45466e+07 2.47664e+07 2.48614e+07 2.49287e+07 2.51444e+07 2.54611e+07 2.59793e+07 2.62321e+07 2.62727e+07
          2.65321e+07 2.72794e+07 2.81585e+07 2.34469e+07 2.35496e+07 2.40649e+07 2.46521e+07 2.50231e+07 2.51024e+07 2.5436e+07 2.58358e+07 2.6077e+07
          2.64352e+07 2.66072e+07 2.66428e+07 2.6919e+07 2.77114e+07 2.84848e+07 2.4275e+07 2.43967e+07 2.46412e+07 2.49802e+07 2.52458e+07 2.52997e+07
          2.56321e+07 2.64522e+07 2.66553e+07 2.68688e+07 2.69965e+07 2.70451e+07 2.72886e+07 2.80837e+07 2.87263e+07 2.50105e+07 2.50815e+07 2.51904e+07
          2.53576e+07 2.54902e+07 2.54971e+07 2.58261e+07 2.7092e+07 2.72114e+07 2.73192e+07 2.74016e+07 2.74622e+07 2.77148e+07 2.84681e+07 2.89868e+07
          2.55666e+07 2.56164e+07 2.56548e+07 2.58671e+07 2.60226e+07 2.6102e+07 2.69192e+07 2.76555e+07 2.7695e+07 2.77959e+07 2.78732e+07 2.79858e+07
          2.82321e+07 2.89041e+07 2.97319e+07 2.60043e+07 2.60596e+07 2.61335e+07 2.64869e+07 2.67267e+07 2.70557e+07 2.77171e+07 2.8281e+07 2.83292e+07
          2.83461e+07 2.83478e+07 2.85171e+07 2.96653e+07 3.03564e+07 3.01825e+07 2.63408e+07 2.64087e+07 2.67009e+07 2.71833e+07 2.79538e+07 2.80516e+07
          2.84703e+07 2.88298e+07 2.88808e+07 2.89542e+07 2.90913e+07 2.99474e+07 3.07019e+07 3.0882e+07 3.07333e+07 2.68253e+07 2.68429e+07 2.73126e+07
          2.78831e+07 2.85728e+07 2.86595e+07 2.89717e+07 2.91841e+07 2.92362e+07 2.93175e+07 2.96407e+07 3.04813e+07 3.11114e+07 3.14584e+07 3.12586e+07
          2.77291e+07 2.77614e+07 2.79229e+07 2.88879e+07 2.91013e+07 2.91425e+07 2.92915e+07 2.9426e+07 2.9476e+07 2.95426e+07 2.99933e+07 3.1004e+07
          3.16831e+07 3.20209e+07 3.17417e+07 2.84591e+07 2.85166e+07 2.89066e+07 2.92629e+07 2.94186e+07 2.94638e+07 2.95748e+07 2.96702e+07 2.97226e+07
          2.97828e+07 3.03434e+07 3.14178e+07 3.21135e+07 3.2385e+07 3.22251e+07 2.88033e+07 2.88715e+07 2.91174e+07 2.94942e+07 2.96873e+07 2.9736e+07
          2.98291e+07 2.99094e+07 2.9957e+07 3.00146e+07 3.06335e+07 3.18249e+07 3.2539e+07 3.2737e+07 3.29052e+07 2.90736e+07 2.91334e+07 2.9358e+07
          2.97299e+07 2.99172e+07 2.99664e+07 3.00547e+07 3.01287e+07 3.01768e+07 3.02419e+07 3.08556e+07 3.21714e+07 3.29578e+07 3.31091e+07 3.3552e+07
          2.92955e+07 2.93649e+07 2.95419e+07 2.98841e+07 3.01184e+07 3.01734e+07 3.02673e+07 3.03445e+07 3.04118e+07 3.04968e+07 3.13687e+07 3.27778e+07
          3.33446e+07 3.35059e+07 3.4053e+07 2.95065e+07 2.95791e+07 2.97355e+07 3.00693e+07 3.03079e+07 3.03692e+07 3.04782e+07 3.05664e+07 3.06561e+07
          3.07558e+07 3.19362e+07 3.34014e+07 3.37467e+07 3.39473e+07 3.45409e+07 2.9696e+07 2.97613e+07 2.99522e+07 3.03043e+07 3.04974e+07 3.05691e+07
          3.0698e+07 3.08008e+07 3.09187e+07 3.10452e+07 3.24142e+07 3.39125e+07 3.42071e+07 3.44342e+07 3.48847e+07 2.98661e+07 2.99277e+07 3.00936e+07
          3.04463e+07 3.06961e+07 3.07698e+07 3.09157e+07 3.10361e+07 3.11815e+07 3.13546e+07 3.29447e+07 3.4354e+07 3.46823e+07 3.48861e+07 3.51861e+07
        </DataArray>
        <DataArray type="Float32" Name="pressure[1]" NumberOfComponents="1" format="ascii">
          2.10507e+07 2.10652e+07 2.16933e+07 2.23466e+07 2.27233e+07 2.31426e+07 2.32734e+07 2.33221e+07 2.33811e+07 2.34463e+07 2.36272e+07 2.39273e+07
          2.41498e+07 2.47611e+07 2.54937e+07 2.10953e+07 2.11093e+07 2.18038e+07 2.2493e+07 2.29042e+07 2.33223e+07 2.34181e+07 2.3456e+07 2.35167e+07
          2.35899e+07 2.38407e+07 2.41444e+07 2.43253e+07 2.49538e+07 2.56595e+07 2.11475e+07 2.11777e+07 2.18859e+07 2.2641e+07 2.30093e+07 2.34013e+07
          2.35158e+07 2.35709e+07 2.36491e+07 2.37492e+07 2.40879e+07 2.44317e+07 2.4613e+07 2.51954e+07 2.58686e+07 2.12616e+07 2.13074e+07 2.17553e+07
          2.27766e+07 2.3143e+07 2.3523e+07 2.36268e+07 2.36766e+07 2.37951e+07 2.39493e+07 2.44005e+07 2.47695e+07 2.49656e+07 2.54816e+07 2.61281e+07
          2.13939e+07 2.14173e+07 1.98027e+07 2.28791e+07 2.33415e+07 2.37426e+07 2.38098e+07 2.38463e+07 2.40338e+07 2.4318e+07 2.47793e+07 2.51464e+07
          2.53352e+07 2.58082e+07 2.63834e+07 2.15965e+07 2.16395e+07 2.22637e+07 2.3416e+07 2.37496e+07 2.40103e+07 2.40523e+07 2.40878e+07 2.4332e+07
          2.47596e+07 2.52285e+07 2.54726e+07 2.56734e+07 2.61362e+07 2.66692e+07 2.18574e+07 2.19081e+07 2.29893e+07 2.39058e+07 2.4118e+07 2.42954e+07
          2.43278e+07 2.43532e+07 2.45924e+07 2.51761e+07 2.56468e+07 2.57588e+07 2.59493e+07 2.64911e+07 2.70658e+07 2.22334e+07 2.22885e+07 2.34184e+07
          2.4263e+07 2.44572e+07 2.45843e+07 2.46204e+07 2.46831e+07 2.49548e+07 2.55389e+07 2.59296e+07 2.60185e+07 2.62717e+07 2.68589e+07 2.76124e+07
          2.27814e+07 2.28444e+07 2.37641e+07 2.45466e+07 2.47664e+07 2.48614e+07 2.49287e+07 2.51444e+07 2.54611e+07 2.59793e+07 2.62321e+07 2.62727e+07
          2.65321e+07 2.72794e+07 2.81585e+07 2.34469e+07 2.35496e+07 2.40649e+07 2.46521e+07 2.50231e+07 2.51024e+07 2.5436e+07 2.58358e+07 2.6077e+07
          2.64352e+07 2.66072e+07 2.66428e+07 2.6919e+07 2.77114e+07 2.84848e+07 2.4275e+07 2.43967e+07 2.46412e+07 2.49802e+07 2.52458e+07 2.52997e+07
          2.56321e+07 2.64522e+07 2.66553e+07 2.68688e+07 2.69965e+07 2.70451e+07 2.72886e+07 2.80837e+07 2.87263e+07 2.50105e+07 2.50815e+07 2.51904e+07
          2.53576e+07 2.54902e+07 2.54971e+07 2.58261e+07 2.7092e+07 2.72114e+07 2.73192e+07 2.74016e+07 2.74622e+07 2.77148e+07 2.84681e+07 2.89868e+07
          2.55666e+07 2.56164e+07 2.56548e+07 2.58671e+07 2.60226e+07 2.6102e+07 2.69192e+07 2.76555e+07 2.7695e+07 2.77959e+07 2.78732e+07 2.79858e+07
          2.82321e+07 2.89041e+07 2.97319e+07 2.60043e+07 2.60596e+07 2.61335e+07 2.64869e+07 2.67267e+07 2.70557e+07 2.77171e+07 2.8281e+07 2.83292e+07
          2.83461e+07 2.83478e+07 2.85171e+07 2.96653e+07 3.03564e+07 3.01825e+07 2.63408e+07 2.64087e+07 2.67009e+07 2.71833e+07 2.79538e+07 2.80516e+07
          2.84703e+07 2.88298e+07 2.88808e+07 2.89542e+07 2.90913e+07 2.99474e+07 3.07019e+07 3.0882e+07 3.07333e+07 2.68253e+07 2.68429e+07 2.73126e+07
          2.78831e+07 2.85728e+07 2.86595e+07 2.89717e+07 2.91841e+07 2.92362e+07 2.93175e+07 2.96407e+07 3.04813e+07 3.11114e+07 3.14584e+07 3.12586e+07
          2.77291e+07 2.77614e+07 2.79229e+07 2.88879e+07 2.91013e+07 2.91425e+07 2.92915e+07 2.9426e+07 2.9476e+07 2.95426e+07 2.99933e+07 3.1004e+07
          3.16831e+07 3.20209e+07 3.17417e+07 2.84591e+07 2.85166e+07 2.89066e+07 2.92629e+07 2.94186e+07 2.94638e+07 2.95748e+07 2.96702e+07 2.97226e+07
          2.97828e+07 3.03434e+07 3.14178e+07 3.21135e+07 3.2385e+07 3.22251e+07 2.88033e+07 2.88715e+07 2.91174e+07 2.94942e+07 2.96873e+07 2.9736e+07
          2.98291e+07 2.99094e+07 2.9957e+07 3.00146e+07 3.06335e+07 3.18249e+07 3.2539e+07 3.2737e+07 3.29052e+07 2.90736e+07 2.91334e+07 2.9358e+07
          2.97299e+07 2.99172e+07 2.99664e+07 3.00547e+07 3.01287e+07 3.01768e+07 3.02419e+07 3.08556e+07 3.21714e+07 3.29578e+07 3.31091e+07 3.3552e+07
          2.92955e+07 2.93649e+07 2.95419e+07 2.98841e+07 3.01184e+07 3.01734e+07 3.02673e+07 3.03445e+07 3.04118e+07 3.04968e+07 3.13687e+07 3.27778e+07
          3.33446e+07 3.35059e+07 3.4053e+07 2.95065e+07 2.95791e+07 2.97355e+07 3.00693e+07 3.03079e+07 3.03692e+07 3.04782e+07 3.05664e+07 3.06561e+07
          3.07558e+07 3.19362e+07 3.34014e+07 3.37467e+07 3.39473e+07 3.45409e+07 2.9696e+07 2.97613e+07 2.99522e+07 3.03043e+07 3.04974e+07 3.05691e+07
          3.0698e+07 3.08008e+07 3.09187e+07 3.10452e+07 3.24142e+07 3.39125e+07 3.42071e+07 3.44342e+07 3.48847e+07 2.98661e+07 2.99277e+07 3.00936e+07
          3.04463e+07 3.06961e+07 3.07698e+07 3.09157e+07 3.10361e+07 3.11815e+07 3.13546e+07 3.29447e+07 3.4354e+07 3.46823e+07 3.48861e+07 3.51861e+07
        </DataArray>
        <DataArray type="Float32" Name="pressure[2]" NumberOfComponents="1" format="ascii">
          2.10507e+07 2.10652e+07 2.16933e+07 2.23466e+07 2.27233e+07 2.31426e+07 2.32734e+07 2.33221e+07 2.33811e+07 2.34463e+07 2.36272e+07 2.39273e+07
          2.41498e+07 2.47611e+07 2.54937e+07 2.10953e+07 2.11093e+07 2.18038e+07 2.2493e+07 2.29042e+07 2.33223e+07 2.34181e+07 2.3456e+07 2.35167e+07
          2.35899e+07 2.38407e+07 2.41444e+07 2.43253e+07 2.49538e+07 2.56595e+07 2.11475e+07 2.11777e+07 2.18859e+07 2.2641e+07 2.30093e+07 2.34013e+07
          2.35158e+07 2.35709e+07 2.36491e+07 2.37492e+07 2.40879e+07 2.44317e+07 2.4613e+07 2.51954e+07 2.58686e+07 2.12616e+07 2.13074e+07 2.17553e+07
          2.27766e+07 2.3143e+07 2.3523e+07 2.36268e+07 2.36766e+07 2.37951e+07 2.39493e+07 2.44005e+07 2.47695e+07 2.49656e+07 2.54816e+07 2.61281e+07
          2.13939e+07 2.14173e+07 1.98027e+07 2.28791e+07 2.33415e+07 2.37426e+07 2.38098e+07 2.38463e+07 2.40338e+07 2.4318e+07 2.47793e+07 2.51464e+07
          2.53352e+07 2.58082e+07 2.63834e+07 2.15965e+07 2.16395e+07 2.22637e+07 2.3416e+07 2.37496e+07 2.40103e+07 2.40523e+07 2.40878e+07 2.4332e+07
          2.47596e+07 2.52285e+07 2.54726e+07 2.56734e+07 2.61362e+07 2.66692e+07 2.18574e+07 2.19081e+07 2.29893e+07 2.39058e+07 2.4118e+07 2.42954e+07
          2.43278e+07 2.43532e+07 2.45924e+07 2.51761e+07 2.56468e+07 2.57588e+07 2.59493e+07 2.64911e+07 2.70658e+07 2.22334e+07 2.22885e+07 2.34184e+07
          2.4263e+07 2.44572e+07 2.45843e+07 2.46204e+07 2.46831e+07 2.49548e+07 2.55389e+07 2.59296e+07 2.60185e+07 2.62717e+07 2.68589e+07 2.76124e+07
          2.27814e+07 2.28444e+07 2.37641e+07 2.45466e+07 2.47664e+07 2.48614e+07 2.49287e+07 2.51444e+07 2.54611e+07 2.59793e+07 2.62321e+07 2.62727e+07
          2.65321e+07 2.72794e+07 2.81585e+07 2.34469e+07 2.35496e+07 2.40649e+07 2.46521e+07 2.50231e+07 2.51024e+07 2.5436e+07 2.58358e+07 2.6077e+07
          2.64352e+07 2.66072e+07 2.66428e+07 2.6919e+07 2.77114e+07 2.84848e+07 2.4275e+07 2.43967e+07 2.46412e+07 2.49802e+07 2.52458e+07 2.52997e+07
          2.56321e+07 2.64522e+07 2.66553e+07 2.68688e+07 2.69965e+07 2.70451e+07 2.72886e+07 2.80837e+07 2.87263e+07 2.50105e+07 2.50815e+07 2.51904e+07
          2.53576e+07 2.54902e+07 2.54971e+07 2.58261e+07 2.7092e+07 2.72114e+07 2.73192e+07 2.74016e+07 2.74622e+07 2.77148e+07 2.84681e+07 2.89868e+07
          2.55666e+07 2.56164e+07 2.56548e+07 2.58671e+07 2.60226e+07 2.6102e+07 2.69192e+07 2.76555e+07 2.7695e+07 2.77959e+07 2.78732e+07 2.79858e+07
          2.82321e+07 2.89041e+07 2.97319e+07 2.60043e+07 2.60596e+07 2.61335e+07 2.64869e+07 2.67267e+07 2.70557e+07 2.77171e+07 2.8281e+07 2.83292e+07
          2.83461e+07 2.83478e+07 2.85171e+07 2.96653e+07 3.03564e+07 3.01825e+07 2.63408e+07 2.64087e+07 2.67009e+07 2.71833e+07 2.79538e+07 2.80516e+07
          2.84703e+07 2.88298e+07 2.88808e+07 2.89542e+07 2.90913e+07 2.99474e+07 3.07019e+07 3.0882e+07 3.07333e+07 2.68253e+07 2.68429e+07 2.73126e+07
          2.78831e+07 2.85728e+07 2.86595e+07 2.89717e+07 2.91841e+07 2.92362e+07 2.93175e+07 2.96407e+07 3.04813e+07 3.11114e+07 3.14584e+07 3.12586e+07
          2.77291e+07 2.77614e+07 2.79229e+07 2.88879e+07 2.91013e+07 2.91425e+07 2.92915e+07 2.9426e+07 2.9476e+07 2.95426e+07 2.99933e+07 3.1004e+07
          3.16831e+07 3.20209e+07 3.17417e+07 2.84591e+07 2.85166e+07 2.89066e+07 2.92629e+07 2.94186e+07 2.94638e+07 2.95748e+07 2.96702e+07 2.97226e+07
          2.97828e+07 3.03434e+07 3.14178e+07 3.21135e+07 3.2385e+07 3.22251e+07 2.88033e+07 2.88715e+07 2.91174e+07 2.94942e+07 2.96873e+07 2.9736e+07
          2.98291e+07 2.99094e+07 2.9957e+07 3.00146e+07 3.06335e+07 3.18249e+07 3.2539e+07 3.2737e+07 3.29052e+07 2.90736e+07 2.91334e+07 2.9358e+07
          2.97299e+07 2.99172e+07 2.99664e+07 3.00547e+07 3.01287e+07 3.01768e+07 3.02419e+07 3.08556e+07 3.21714e+07 3.29578e+07 3.31091e+07 3.3552e+07
          2.92955e+07 2.93649e+07 2.95419e+07 2.98841e+07 3.01184e+07 3.01734e+07 3.02673e+07 3.03445e+07 3.04118e+07 3.04968e+07 3.13687e+07 3.27778e+07
          3.33446e+07 3.35059e+07 3.4053e+07 2.95065e+07 2.95791e+07 2.97355e+07 3.00693e+07 3.03079e+07 3.03692e+07 3.04782e+07 3.05664e+07 3.06561e+07
          3.07558e+07 3.19362e+07 3.34014e+07 3.37467e+07 3.39473e+07 3.45409e+07 2.9696e+07 2.97613e+07 2.99522e+07 3.03043e+07 3.04974e+07 3.05691e+07
          3.0698e+07 3.08008e+07 3.09187e+07 3.10452e+07 3.24142e+07 3.39125e+07 3.42071e+07 3.44342e+07 3.48847e+07 2.98661e+07 2.99277e+07 3.00936e+07
          3.04463e+07 3.06961e+07 3.07698e+07 3.09157e+07 3.10361e+07 3.11815e+07 3.13546e+07 3.29447e+07 3.4354e+07 3.46823e+07 3.48861e+07 3.51861e+07
        </DataArray>
        <DataArray type="Float32" Name="velocity[0]" NumberOfComponents="1" format="ascii">
          -3.2164e-09 4.07216e-08 1.76337e-10 -4.12258e-09 -3.75315e-10 -1.44663e-09 -6.01281e-10 1.10902e-09 1.73036e-09 -4.28824e-10 -1.84974e-09 -2.55838e-09
          -1.75861e-09 -5.65903e-10 -2.58041e-09 -3.69998e-08 1.52511e-07 4.31197e-10 -1.85491e-08 -6.45092e-11 1.50689e-09 7.37999e-09 5.07473e-09 3.71959e-09
          -2.52557e-09 -3.89546e-09 -1.09975e-08 -6.74933e-09 -1.72884e-09 -6.84481e-09 -3.89586e-08 1.95756e-07 1.13934e-09 1.08737e-09 4.18149e-10 4.36039e-09
          1.29596e-08 9.33546e-09 1.54083e-09 -6.15266e-09 -4.64538e-09 -2.49657e-08 -9.33782e-09 -3.66767e-09 -1.02599e-08 -1.10226e-08 1.74981e-07 7.15757e-09
          8.03739e-08 -1.61605e-09 -9.06408e-09 -6.62269e-09 -1.04673e-09 -4.53894e-09 -1.32479e-08 -5.92777e-09 -4.7892e-08 -6.65227e-09 -5.40178e-09 -1.40058e-08
          -9.21274e-08 -3.37794e-08 -2.81945e-10 -1.28223e-07 -1.46845e-08 -5.72277e-08 -6.51008e-08 -4.67007e-08 -7.0646e-09 -1.34887e-08 -8.29801e-09 -8.53615e-08
          -3.58617e-09 -4.98673e-09 -1.72651e-08 -1.81704e-07 -2.26573e-07 -8.03386e-09 -2.70004e-07 -3.28343e-08 -1.77985e-07 -1.03773e-07 -1.22772e-07 -4.59932e-09
          -5.94821e-09 -1.2584e-08 -1.20472e-07 -2.07581e-09 -3.96579e-09 -1.9444e-08 -1.82465e-07 -1.96473e-07 -2.426e-09 -9.06592e-08 -3.30041e-08 -3.41059e-07
          -9.64239e-08 -1.45044e-07 -4.06654e-09 -2.68258e-09 -1.57476e-08 -1.45821e-07 -1.80037e-09 -3.90964e-09 -2.09476e-08 -1.65677e-07 -1.79805e-07 -2.01527e-09
          -1.65286e-08 -2.14885e-08 -4.29472e-07 -6.36386e-08 -1.60229e-07 -5.06269e-09 -2.42508e-09 -1.83298e-08 -1.65091e-07 -1.51445e-09 -4.04663e-09 -2.26432e-08
          -1.49204e-07 -1.61608e-07 -2.36194e-09 -2.50385e-09 -1.39913e-08 -4.23977e-07 -2.07806e-08 -2.54575e-07 -5.06045e-09 -2.97101e-09 -3.18069e-08 -1.62356e-07
          -1.50258e-09 -3.71515e-09 -2.48762e-08 -1.21786e-07 -1.48671e-07 -9.18579e-09 -5.71002e-10 -1.00334e-08 -3.92275e-07 -3.70251e-09 -3.5829e-07 -5.35444e-09
          -3.45805e-09 -5.50687e-08 -1.40173e-07 -2.50349e-09 -3.25517e-09 -2.70755e-08 -9.03549e-08 -1.42041e-07 -2.02578e-08 -1.43772e-09 -1.16034e-08 -3.54255e-07
          -7.48885e-10 -4.28641e-07 -1.17363e-08 -5.04643e-09 -7.10644e-08 -1.1599e-07 -6.50396e-09 -3.83528e-09 -2.89961e-08 -7.25621e-08 -1.37559e-07 -2.79713e-08
          -1.4708e-09 -3.58406e-08 -2.89918e-07 -1.71092e-09 -4.1603e-07 -4.45762e-08 -9.58607e-09 -7.55214e-08 -8.49164e-08 -2.04265e-08 -7.04372e-09 -3.09053e-08
          -6.59148e-08 -1.40334e-07 -2.55468e-08 -3.16193e-09 -5.87662e-08 -2.23531e-07 -2.42258e-09 -4.12102e-07 -6.71156e-08 -2.06713e-08 -6.82054e-08 -4.20233e-08
          -3.35195e-08 -1.90957e-08 -3.31321e-08 -6.12068e-08 -1.48408e-07 -1.55249e-08 -6.43551e-09 -4.71475e-08 -2.1168e-07 -2.00347e-09 -4.55026e-07 -8.15989e-08
          -2.63282e-08 -4.04906e-08 -1.26214e-08 -3.61841e-08 -3.62447e-08 -3.32334e-08 -4.40819e-08 -1.57124e-07 -1.00794e-08 -1.02578e-08 -3.42372e-08 -2.28954e-07
          -1.60145e-09 -4.52113e-07 -1.03264e-07 -2.6714e-08 -1.83674e-08 -5.63043e-09 -3.66915e-08 -5.07602e-08 -3.02459e-08 -4.90165e-08 -1.17074e-07 -1.00054e-08
          -1.06746e-08 -4.02119e-08 -2.40628e-07 -1.99039e-09 -3.94653e-07 -1.08261e-07 -3.30047e-08 -1.04798e-08 -6.25298e-09 -4.139e-08 -7.12285e-08 -2.57421e-08
          -6.92057e-08 -6.10472e-08 -8.79273e-09 -8.84764e-09 -5.93023e-08 -2.19665e-07 -3.63454e-09 -3.16768e-07 -1.10886e-07 -5.11784e-08 -4.02186e-09 -5.70983e-09
          -3.34362e-08 -1.03927e-07 -2.05802e-08 -7.00926e-08 -4.50212e-08 -3.98067e-09 -5.19724e-09 -8.63397e-08 -1.58208e-07 -5.36595e-09 -2.46786e-07 -1.22692e-07
          -8.04665e-08 -2.8124e-09 -3.80973e-09 -2.15256e-08 -1.34955e-07 -1.61327e-08 -6.39016e-08 -3.17899e-08 -2.0123e-09 -1.71442e-09 -1.04919e-07 -9.94281e-08
          -5.62539e-09 -1.80355e-07 -1.25118e-07 -1.29764e-07 -1.63856e-09 -3.13146e-09 -2.80241e-08 -1.53831e-07 -1.41727e-08 -5.33091e-08 -2.14364e-08 -1.77333e-09
          -7.40695e-10 -1.10084e-07 -5.58065e-08 -4.66722e-09 -1.33207e-07 -8.19687e-08 -2.28844e-07 -2.89906e-09 -4.45376e-09 -4.16413e-08 -1.62925e-07 -1.52982e-08
          -4.08102e-08 -1.44121e-08 -1.55783e-09 -1.79059e-10 -1.01363e-07 -2.88571e-08 -3.98368e-09 -1.05434e-07 -3.46408e-08 -3.19933e-07 -4.56338e-09 -8.20746e-09
          -5.0662e-08 -1.70114e-07 -1.76202e-08 -2.56745e-08 -7.34798e-09 -2.4417e-09 -9.33358e-10 -7.45401e-08 -1.95158e-08 -3.91019e-09 -1.00752e-07 -1.89382e-08
          -3.39447e-07 -4.16858e-09 -1.57808e-08 -5.54404e-08 -1.77462e-07 -2.18952e-08 -1.1985e-08 -2.93718e-09 -1.09854e-09 -6.15331e-10 -3.71445e-08 -1.45686e-08
          -3.22606e-09 -1.07312e-07 -1.53439e-08 -2.93094e-07 -5.78808e-09 -2.72148e-08 -7.26334e-08 -1.84801e-07 -2.86141e-08 -3.17562e-09 -6.61796e-10 2.43845e-10
          9.30232e-11 -8.77291e-09 -5.56279e-09 -1.18445e-09 -5.48837e-08 -7.16086e-09 -1.26844e-07 -3.81916e-09 -1.65101e-08 -4.3353e-08 -9.49561e-08 -1.60708e-08
        </DataArray>
        <DataArray type="Float32" Name="velocity[1]" NumberOfComponents="1" format="ascii">
          4.99867e-25 6.45289e-24 8.84448e-26 -6.40698e-25 5.83284e-26 0 9.34462e-26 -1.38636e-25 4.57437e-26 5.46308e-24 -3.54014e-24 3.82659e-26
          2.32436e-24 -9.27022e-25 4.00667e-25 4.75046e-24 1.09491e-23 7.99667e-26 -1.60136e-24 -1.75346e-25 7.28088e-24 1.16684e-24 3.11486e-25 -6.89959e-24
          -1.28214e-25 0 -4.41969e-26 4.12057e-26 6.53768e-28 2.61711e-25 -4.44603e-24 -1.42955e-23 -1.77576e-24 4.65311e-24 -1.52331e-25 0
          4.08412e-25 -2.56712e-25 -3.7884e-25 0 6.77668e-24 -1.06086e-23 0 1.07856e-24 -2.70243e-25 2.43713e-25 1.21266e-23 -1.60485e-24
          -7.83357e-24 4.51979e-25 1.01074e-23 -2.0529e-23 2.49373e-23 -3.66323e-24 1.07766e-24 3.32807e-24 -4.29602e-24 3.28199e-24 -1.25618e-24 9.40273e-25
          -1.06397e-25 -6.70789e-23 6.24763e-24 1.164e-23 -3.92431e-25 -5.85269e-24 1.00132e-25 -8.96815e-26 5.38487e-26 -6.20043e-24 3.75585e-24 -7.058e-24
          -2.56812e-26 1.20757e-25 -1.43831e-24 -1.43085e-25 7.15419e-24 -6.83751e-25 8.00046e-24 1.64838e-25 -1.34723e-23 0 -1.22182e-25 1.01506e-25
          3.56056e-25 -4.57764e-25 5.78058e-24 -1.36505e-24 8.12206e-25 1.43723e-24 -1.13393e-24 1.34144e-24 0 1.00464e-23 -9.55008e-25 -3.0774e-23
          -8.14261e-26 -9.04308e-26 -3.25548e-24 8.10752e-27 -1.42968e-26 -1.39812e-26 4.04637e-26 -9.89187e-28 -1.58351e-24 -1.8874e-25 1.32265e-23 1.48497e-24
          3.34654e-24 -4.82742e-26 3.12701e-23 -4.92828e-26 -4.51977e-26 -5.91e-26 -6.27278e-26 -3.72167e-24 -1.24385e-23 -5.33265e-27 -3.48931e-25 1.84702e-24
          -1.44898e-24 -9.40947e-24 -8.59137e-26 -1.89664e-24 -3.93035e-25 5.78577e-24 0 0 -9.70283e-25 5.13864e-27 1.10363e-24 2.83942e-24
          -8.47523e-27 4.73887e-26 -1.55865e-28 -1.09672e-23 9.50186e-25 1.32608e-24 -1.35789e-25 -2.14038e-24 4.99435e-24 -9.18877e-24 6.91671e-24 9.35774e-25
          -5.071e-26 -8.53709e-25 3.00671e-24 -7.92357e-25 0 -2.01904e-24 4.44444e-24 1.13154e-25 6.95298e-25 -1.32713e-25 1.78775e-24 -2.3344e-27
          -7.73886e-24 8.0458e-24 9.18839e-25 2.0155e-25 5.6223e-25 8.24705e-24 2.01767e-24 -2.5767e-25 1.28835e-25 -5.1945e-24 6.93754e-25 -5.0691e-25
          -9.66417e-26 2.76601e-24 -1.92135e-23 1.6056e-25 -5.97644e-24 -4.45052e-24 -5.07182e-25 -7.24622e-25 3.81046e-24 -1.809e-24 1.07656e-24 -1.68278e-25
          5.04918e-24 1.05234e-23 0 -2.14736e-25 2.28485e-25 3.69021e-24 -5.0302e-26 5.37221e-24 6.83046e-25 -7.35152e-28 -4.7062e-24 -1.48177e-24
          4.10744e-25 -7.40311e-25 -1.42843e-29 -5.86625e-25 8.42419e-28 8.47817e-25 -5.87775e-25 1.09269e-27 1.19418e-23 -1.52293e-26 1.3045e-24 2.72676e-24
          3.22203e-24 4.70746e-24 3.37631e-24 -4.94641e-24 -2.22287e-28 -2.5014e-24 -4.46257e-24 -1.26431e-23 -2.22845e-28 6.47086e-25 3.12252e-26 1.41674e-27
          -4.73027e-26 -5.54315e-24 1.6851e-24 0 0 4.79749e-25 4.07595e-24 -4.74548e-25 4.70055e-24 0 7.09342e-24 0
          -7.11864e-25 8.96701e-25 1.32661e-27 1.07748e-25 -7.17578e-24 -3.2644e-28 -4.48787e-28 -5.30653e-28 4.36083e-24 -8.30283e-28 -1.30812e-24 -2.19937e-24
          4.33194e-28 1.61346e-24 -9.0845e-29 4.86515e-26 2.06938e-24 -1.10981e-23 0 -1.15326e-23 0 5.14904e-28 3.21301e-24 -3.98466e-24
          -1.88964e-24 4.60087e-28 1.39715e-24 0 3.93683e-24 0 6.63606e-25 2.1591e-24 5.29676e-24 1.21466e-25 -5.94674e-24 -5.44548e-24
          -2.3073e-24 1.87853e-25 5.8852e-26 -1.87981e-28 -1.84235e-24 -1.11007e-24 4.56352e-24 -2.2536e-24 2.5035e-24 -2.08794e-24 7.54915e-25 9.63065e-24
          -8.10917e-26 -4.37721e-24 1.0418e-23 5.77445e-24 -3.47495e-24 7.60376e-26 9.71806e-25 -6.40093e-28 1.09253e-24 -6.30698e-29 -4.1259e-24 8.94325e-25
          -1.90312e-24 9.51449e-26 -2.96992e-24 -1.35792e-25 -5.9014e-24 -5.31376e-24 1.00464e-23 2.84775e-25 3.72379e-24 1.14404e-24 -3.85762e-25 -9.00071e-25
          -1.1003e-24 6.63122e-25 0 -4.21018e-26 -1.40279e-24 4.87302e-24 -8.56609e-24 8.56569e-24 -6.08533e-24 1.62789e-27 0 0
          2.57944e-25 -8.71851e-28 1.45339e-24 -1.25195e-24 -1.31564e-24 1.21384e-24 -2.03851e-24 -9.25173e-25 -1.39963e-24 2.69019e-26 6.38239e-25 -3.98051e-24
          1.42179e-23 -2.71156e-25 -6.79912e-24 4.84183e-25 9.93194e-25 -2.45157e-28 -8.75521e-25 1.62324e-29 -6.90821e-30 1.24514e-25 -3.04579e-24 5.35073e-25
          -1.33214e-25 1.08541e-23 -4.49577e-24 0 -2.87551e-25 -9.01748e-25 6.91664e-24 -7.95226e-25 0 -4.93568e-25 -5.54974e-29 -4.01219e-25
          6.80921e-25 -1.36339e-24 -2.28783e-24 -3.68251e-25 -2.82844e-24 1.11288e-24 -3.08621e-23 0 3.08818e-23 -2.26722e-23 1.87478e-23 4.71462e-25
        </DataArray>
        <DataArray type="Float32" Name="velocity[2]" NumberOfComponents="1" format="ascii">
          -3.48525e-10 5.62174e-09 -3.48979e-09 -3.97678e-09 -3.02986e-09 -3.08206e-09 -2.81926e-09 -2.51529e-09 -2.51568e-09 -2.9503e-09 -3.02997e-09 -2.84803e-09
          -2.39911e-09 -1.93539e-09 -1.31592e-09 -4.47523e-09 2.74684e-08 -2.83324e-09 -5.59896e-09 -1.80915e-09 -1.73282e-09 -1.10426e-09 -1.80057e-09 -2.10838e-09
          -3.12475e-09 -3.25026e-09 -4.09985e-09 -2.74771e-09 -1.52907e-09 -1.76898e-09 -8.7622e-09 3.21306e-08 -8.12808e-10 -2.30833e-09 -3.84684e-09 -3.01761e-09
          -1.31953e-09 -1.89935e-09 -3.14028e-09 -4.23366e-09 -3.8072e-09 -6.66549e-09 -3.25169e-09 -2.03012e-09 -2.3875e-09 -1.88354e-09 3.06141e-08 2.44351e-10
          1.02969e-08 -6.44775e-09 -7.04622e-09 -5.58559e-09 -3.82655e-09 -3.88094e-09 -4.94824e-09 -3.25506e-09 -1.01019e-08 -2.56311e-09 -2.37604e-09 -3.1428e-09
          -1.08373e-08 6.83259e-10 -1.07002e-09 -3.08593e-08 -1.39168e-08 -1.90265e-08 -1.75549e-08 -1.22574e-08 -4.39358e-09 -5.74117e-09 -4.82671e-09 -1.68784e-08
          -1.14892e-09 -1.58265e-09 -3.46083e-09 -3.13695e-08 -3.97054e-08 -2.66188e-09 -5.49566e-08 -1.84139e-08 -3.95899e-08 -2.25794e-08 -2.48523e-08 -2.92825e-09
          -3.3178e-09 -4.40732e-09 -2.25034e-08 -8.97364e-10 -1.2911e-09 -3.7412e-09 -3.26612e-08 -3.58943e-08 -1.96011e-09 -2.06472e-08 -1.39309e-08 -6.48416e-08
          -1.8063e-08 -2.72483e-08 -2.83994e-09 -2.55337e-09 -4.84118e-09 -2.69613e-08 -7.7068e-10 -1.09795e-09 -3.88439e-09 -2.96938e-08 -3.30559e-08 -2.05428e-09
          -5.09998e-09 -6.74183e-09 -7.84076e-08 -1.41417e-08 -3.09855e-08 -2.66893e-09 -2.17628e-09 -4.82938e-09 -3.01845e-08 -9.8301e-10 -1.46294e-09 -4.36875e-09
          -2.67587e-08 -2.9743e-08 -1.9637e-09 -2.07934e-09 -4.37799e-09 -7.7504e-08 -7.50967e-09 -4.75262e-08 -1.96739e-09 -1.6008e-09 -5.94938e-09 -2.8783e-08
          -9.34937e-10 -1.34221e-09 -4.75496e-09 -2.26903e-08 -2.87731e-08 -3.70125e-09 -1.50907e-09 -3.17263e-09 -7.14056e-08 -3.72937e-09 -6.5145e-08 -1.69498e-09
          -1.31863e-09 -9.6534e-09 -2.46876e-08 -1.15682e-09 -1.27829e-09 -5.13871e-09 -1.67037e-08 -2.66677e-08 -4.87209e-09 -1.16708e-09 -2.82356e-09 -6.41045e-08
          -2.78158e-09 -7.75451e-08 -2.98602e-09 -1.39997e-09 -1.27249e-08 -2.1049e-08 -2.1763e-09 -1.35072e-09 -5.38932e-09 -1.31744e-08 -2.51264e-08 -5.63231e-09
          -6.6213e-10 -5.56428e-09 -5.12183e-08 -2.36465e-09 -7.64208e-08 -1.03303e-08 -2.41346e-09 -1.3889e-08 -1.67204e-08 -5.84743e-09 -2.37743e-09 -5.81056e-09
          -1.16851e-08 -2.46213e-08 -4.6227e-09 -1.0974e-09 -1.07526e-08 -4.08285e-08 -2.95144e-09 -7.42783e-08 -1.27873e-08 -4.54768e-09 -1.30985e-08 -1.0341e-08
          -1.00405e-08 -5.72352e-09 -6.22091e-09 -1.10423e-08 -2.65109e-08 -3.30484e-09 -1.98527e-09 -9.76756e-09 -3.89216e-08 -1.40591e-09 -8.10526e-08 -1.38605e-08
          -3.07008e-09 -6.92591e-09 -3.6713e-09 -8.211e-09 -6.95774e-09 -5.51203e-09 -8.66302e-09 -2.9206e-08 -3.0914e-09 -3.12034e-09 -7.2413e-09 -4.13108e-08
          -9.7428e-10 -8.07231e-08 -1.93427e-08 -5.5746e-09 -4.12909e-09 -2.04437e-09 -7.52081e-09 -8.81146e-09 -4.68597e-09 -7.42398e-09 -2.04875e-08 -3.80176e-09
          -3.90742e-09 -8.88339e-09 -4.36246e-08 -1.2355e-09 -7.16877e-08 -2.22858e-08 -8.73353e-09 -4.98281e-09 -4.53793e-09 -1.03811e-08 -1.31063e-08 -3.68537e-09
          -1.20761e-08 -1.10295e-08 -2.52726e-09 -2.74552e-09 -1.09478e-08 -3.97832e-08 -2.93286e-09 -5.89689e-08 -2.34854e-08 -1.2358e-08 -3.50613e-09 -3.94405e-09
          -9.74568e-09 -1.9789e-08 -2.76223e-09 -1.24274e-08 -8.35628e-09 -1.62564e-09 -2.23114e-09 -1.59688e-08 -2.95042e-08 -4.14154e-09 -4.76953e-08 -2.61593e-08
          -1.74368e-08 -3.18793e-09 -3.41333e-09 -6.53223e-09 -2.45416e-08 -2.22906e-09 -1.16107e-08 -6.67368e-09 -1.7508e-09 -1.65185e-09 -1.95981e-08 -1.95143e-08
          -4.13132e-09 -3.57066e-08 -2.72544e-08 -2.72324e-08 -3.29711e-09 -3.62513e-09 -7.62653e-09 -2.8222e-08 -2.46158e-09 -9.75963e-09 -4.63956e-09 -1.38437e-09
          -1.31813e-09 -2.06243e-08 -1.19289e-08 -3.8148e-09 -2.69985e-08 -2.05214e-08 -4.58867e-08 -3.34357e-09 -3.39297e-09 -9.35073e-09 -2.99006e-08 -3.1105e-09
          -7.66816e-09 -3.69859e-09 -1.58976e-09 -1.27756e-09 -1.95875e-08 -7.64929e-09 -3.63554e-09 -2.17654e-08 -1.03042e-08 -6.03397e-08 -3.68072e-09 -4.21659e-09
          -1.14753e-08 -3.15737e-08 -3.46838e-09 -5.06432e-09 -2.50965e-09 -1.7633e-09 -1.4521e-09 -1.53564e-08 -6.67307e-09 -3.98685e-09 -2.09491e-08 -6.56736e-09
          -6.35153e-08 -4.68594e-09 -6.40991e-09 -1.28572e-08 -3.3793e-08 -4.92485e-09 -2.48896e-09 -1.3498e-09 -1.24374e-09 -1.33608e-09 -8.86269e-09 -6.08772e-09
          -4.27118e-09 -2.25823e-08 -6.36089e-09 -5.69741e-08 -7.7701e-09 -1.10819e-08 -1.78038e-08 -3.57915e-08 -6.22165e-09 -7.71692e-10 -5.73254e-10 -4.25556e-10
          -4.26404e-10 -2.45302e-09 -2.61447e-09 -2.13362e-09 -1.30977e-08 -6.57548e-09 -3.31812e-08 -1.42305e-08 -1.24702e-08 -1.42351e-08 -1.98949e-08 -3.33942e-09
        </DataArray>
        <DataArray type="Float32" Name="z[0]" NumberOfComponents="1" format="ascii">
          0.150578 0.150579 0.15058 0.150582 0.150582 0.150583 0.150584 0.150585 0.150585 0.150586 0.150587 0.150588
          0.150589 0.150591 0.150596 0.150581 0.150582 0.150583 0.150585 0.150586 0.150587 0.150587 0.150588 0.150588
          0.150589 0.15059 0.150591 0.150593 0.150595 0.150599 0.150584 0.150585 0.150587 0.150588 0.150589 0.15059
          0.15059 0.150591 0.150592 0.150593 0.150593 0.150595 0.150596 0.150598 0.150602 0.150588 0.150589 0.15059
          0.150591 0.150592 0.150593 0.150594 0.150594 0.150595 0.150596 0.150597 0.150598 0.150599 0.150601 0.150605
          0.150591 0.150592 0.150593 0.150594 0.150595 0.150596 0.150597 0.150597 0.150598 0.150599 0.1506 0.150601
          0.150602 0.150604 0.150609 0.150594 0.150595 0.150596 0.150597 0.150598 0.150599 0.1506 0.150615 0.150601