<?xml version="1.0"?>
<VTKFile type="UnstructuredGrid" version="0.1" byte_order="LittleEndian">
  <UnstructuredGrid>
    <Piece NumberOfCells="360" NumberOfPoints="800">
      <CellData Scalars="pressure[0]">
        <DataArray type="Float32" Name="pressure[0]" NumberOfComponents="1" format="ascii">
          2.09159e+07 2.09305e+07 2.17167e+07 2.25095e+07 2.28229e+07 2.32202e+07 2.33574e+07 2.34074e+07 2.34681e+07 2.35323e+07 2.37133e+07 2.40343e+07
          2.4289e+07 2.49514e+07 2.57343e+07 2.09598e+07 2.09744e+07 2.18609e+07 2.27204e+07 2.30241e+07 2.34217e+07 2.35208e+07 2.35588e+07 2.36197e+07
          2.3692e+07 2.39563e+07 2.42915e+07 2.4486e+07 2.51624e+07 2.59024e+07 2.10038e+07 2.10184e+07 2.1915e+07 2.28907e+07 2.31779e+07 2.35457e+07
          2.36597e+07 2.37135e+07 2.37899e+07 2.38918e+07 2.42664e+07 2.4667e+07 2.4833e+07 2.54353e+07 2.61178e+07 2.10483e+07 2.1064e+07 2.17742e+07
          2.30385e+07 2.33436e+07 2.37267e+07 2.38435e+07 2.38989e+07 2.40262e+07 2.41926e+07 2.46907e+07 2.51226e+07 2.52757e+07 2.57521e+07 2.63863e+07
          2.11316e+07 2.11584e+07 1.97446e+07 2.31823e+07 2.37314e+07 2.43159e+07 2.43966e+07 2.4437e+07 2.4538e+07 2.47982e+07 2.52203e+07 2.55697e+07
          2.56987e+07 2.6099e+07 2.66476e+07 2.13206e+07 2.13636e+07 2.15342e+07 2.38778e+07 2.43821e+07 2.48452e+07 2.4901e+07 2.49522e+07 2.50893e+07
          2.57481e+07 2.58397e+07 2.5934e+07 2.60737e+07 2.64479e+07 2.6939e+07 2.15595e+07 2.16086e+07 2.227e+07 2.4568e+07 2.50112e+07 2.53886e+07
          2.54517e+07 2.55203e+07 2.56093e+07 2.59113e+07 2.61484e+07 2.62217e+07 2.63669e+07 2.68178e+07 2.7342e+07 2.18982e+07 2.19524e+07 2.30632e+07
          2.48382e+07 2.5486e+07 2.58544e+07 2.59098e+07 2.59599e+07 2.60493e+07 2.62549e+07 2.64079e+07 2.64697e+07 2.66802e+07 2.71935e+07 2.78961e+07
          2.23832e+07 2.24472e+07 2.36133e+07 2.47949e+07 2.59683e+07 2.62924e+07 2.639e+07 2.64816e+07 2.65232e+07 2.66119e+07 2.66764e+07 2.67047e+07
          2.69309e+07 2.76121e+07 2.84458e+07 2.29643e+07 2.30637e+07 2.37953e+07 2.45526e+07 2.64481e+07 2.66852e+07 2.69002e+07 2.70966e+07 2.7007e+07
          2.69845e+07 2.69954e+07 2.70222e+07 2.72718e+07 2.80397e+07 2.87728e+07 2.38202e+07 2.3924e+07 2.44414e+07 2.49726e+07 2.68026e+07 2.69811e+07
          2.73239e+07 2.76176e+07 2.74618e+07 2.73761e+07 2.73277e+07 2.73437e+07 2.75633e+07 2.84241e+07 2.90447e+07 2.46803e+07 2.50588e+07 2.52606e+07
          2.56555e+07 2.71615e+07 2.72731e+07 2.77585e+07 2.81521e+07 2.81974e+07 2.78101e+07 2.77711e+07 2.79348e+07 2.84516e+07 2.89298e+07 2.97902e+07
          2.59561e+07 2.60069e+07 2.60162e+07 2.63606e+07 2.7649e+07 2.77616e+07 2.82828e+07 2.87396e+07 2.88349e+07 2.88228e+07 2.87839e+07 2.90085e+07
          2.95103e+07 3.03007e+07 3.0451e+07 2.69021e+07 2.69381e+07 2.67557e+07 2.74207e+07 2.84514e+07 2.85494e+07 2.89825e+07 2.93251e+07 2.93935e+07
          2.94737e+07 2.95443e+07 2.99966e+07 3.06062e+07 3.10817e+07 3.08649e+07 2.76438e+07 2.76425e+07 2.76753e+07 2.87752e+07 2.92266e+07 2.92874e+07
          2.95774e+07 2.97856e+07 2.98359e+07 2.9914e+07 3.00644e+07 3.07741e+07 3.13262e+07 3.14954e+07 3.13548e+07 2.83019e+07 2.83261e+07 2.84224e+07
          2.94633e+07 2.96924e+07 2.97467e+07 2.99525e+07 3.00884e+07 3.01369e+07 3.02086e+07 3.0487e+07 3.11676e+07 3.16747e+07 3.19675e+07 3.18165e+07
          2.89819e+07 2.90331e+07 2.94185e+07 2.99574e+07 3.00749e+07 3.01138e+07 3.02224e+07 3.03179e+07 3.03652e+07 3.04272e+07 3.07942e+07 3.16046e+07
          3.21515e+07 3.2438e+07 3.22394e+07 2.95317e+07 2.95914e+07 2.99528e+07 3.02269e+07 3.03468e+07 3.03912e+07 3.04766e+07 3.05484e+07 3.05977e+07
          3.06546e+07 3.11052e+07 3.19621e+07 3.25213e+07 3.27568e+07 3.26601e+07 2.98387e+07 2.99047e+07 3.01184e+07 3.04264e+07 3.05859e+07 3.06335e+07
          3.0709e+07 3.07728e+07 3.08183e+07 3.08732e+07 3.13687e+07 3.2316e+07 3.28889e+07 3.30669e+07 3.32358e+07 3.00856e+07 3.0144e+07 3.03355e+07
          3.06411e+07 3.0798e+07 3.0846e+07 3.09196e+07 3.09803e+07 3.10262e+07 3.10869e+07 3.15782e+07 3.26222e+07 3.32515e+07 3.3393e+07 3.37837e+07
          3.0294e+07 3.03599e+07 3.05125e+07 3.07948e+07 3.0989e+07 3.10416e+07 3.11207e+07 3.11849e+07 3.12456e+07 3.13218e+07 3.20154e+07 3.31324e+07
          3.35893e+07 3.37385e+07 3.42135e+07 3.04939e+07 3.05623e+07 3.06984e+07 3.09739e+07 3.11715e+07 3.1229e+07 3.13204e+07 3.13939e+07 3.14721e+07
          3.15597e+07 3.2495e+07 3.36559e+07 3.3939e+07 3.4119e+07 3.46324e+07 3.06768e+07 3.07394e+07 3.09026e+07 3.11923e+07 3.1354e+07 3.14197e+07
          3.15271e+07 3.16123e+07 3.17127e+07 3.18212e+07 3.29045e+07 3.40913e+07 3.43346e+07 3.45354e+07 3.49371e+07 3.08446e+07 3.09043e+07 3.10477e+07
          3.13376e+07 3.15438e+07 3.16112e+07 3.1732e+07 3.1831e+07 3.19532e+07 3.20984e+07 3.3355e+07 3.44719e+07 3.47417e+07 3.49243e+07 3.52082e+07
        </DataArray>
        <DataArray type="Float32" Name="pressure[1]" NumberOfComponents="1" format="ascii">
          2.09159e+07 2.09305e+07 2.17167e+07 2.25095e+07 2.28229e+07 2.32202e+07 2.33574e+07 2.34074e+07 2.34681e+07 2.35323e+07 2.37133e+07 2.40343e+07
          2.4289e+07 2.49514e+07 2.57343e+07 2.09598e+07 2.09744e+07 2.18609e+07 2.27204e+07 2.30241e+07 2.34217e+07 2.35208e+07 2.35588e+07 2.36197e+07
          2.3692e+07 2.39563e+07 2.42915e+07 2.4486e+07 2.51624e+07 2.59024e+07 2.10038e+07 2.10184e+07 2.1915e+07 2.28907e+07 2.31779e+07 2.35457e+07
          2.36597e+07 2.37135e+07 2.37899e+07 2.38918e+07 2.42664e+07 2.4667e+07 2.4833e+07 2.54353e+07 2.61178e+07 2.10483e+07 2.1064e+07 2.17742e+07
          2.30385e+07 2.33436e+07 2.37267e+07 2.38435e+07 2.38989e+07 2.40262e+07 2.41926e+07 2.46907e+07 2.51226e+07 2.52757e+07 2.57521e+07 2.63863e+07
          2.11316e+07 2.11584e+07 1.97446e+07 2.31823e+07 2.37314e+07 2.43159e+07 2.43966e+07 2.4437e+07 2.4538e+07 2.47982e+07 2.52203e+07 2.55697e+07
          2.56987e+07 2.6099e+07 2.66476e+07 2.13206e+07 2.13636e+07 2.15342e+07 2.38778e+07 2.43821e+07 2.48452e+07 2.4901e+07 2.49522e+07 2.50893e+07
          2.57481e+07 2.58397e+07 2.5934e+07 2.60737e+07 2.64479e+07 2.6939e+07 2.15595e+07 2.16086e+07 2.227e+07 2.4568e+07 2.50112e+07 2.53886e+07
          2.54517e+07 2.55203e+07 2.56093e+07 2.59113e+07 2.61484e+07 2.62217e+07 2.63669e+07 2.68178e+07 2.7342e+07 2.18982e+07 2.19524e+07 2.30632e+07
          2.48382e+07 2.5486e+07 2.58544e+07 2.59098e+07 2.59599e+07 2.60493e+07 2.62549e+07 2.64079e+07 2.64697e+07 2.66802e+07 2.71935e+07 2.78961e+07
          2.23832e+07 2.24472e+07 2.36133e+07 2.47949e+07 2.59683e+07 2.62924e+07 2.639e+07 2.64816e+07 2.65232e+07 2.66119e+07 2.66764e+07 2.67047e+07
          2.69309e+07 2.76121e+07 2.84458e+07 2.29643e+07 2.30637e+07 2.37953e+07 2.45526e+07 2.64481e+07 2.66852e+07 2.69002e+07 2.70966e+07 2.7007e+07
          2.69845e+07 2.69954e+07 2.70222e+07 2.72718e+07 2.80397e+07 2.87728e+07 2.38202e+07 2.3924e+07 2.44414e+07 2.49726e+07 2.68026e+07 2.69811e+07
          2.73239e+07 2.76176e+07 2.74618e+07 2.73761e+07 2.73277e+07 2.73437e+07 2.75633e+07 2.84241e+07 2.90447e+07 2.46803e+07 2.50588e+07 2.52606e+07
          2.56555e+07 2.71615e+07 2.72731e+07 2.77585e+07 2.81521e+07 2.81974e+07 2.78101e+07 2.77711e+07 2.79348e+07 2.84516e+07 2.89298e+07 2.97902e+07
          2.59561e+07 2.60069e+07 2.60162e+07 2.63606e+07 2.7649e+07 2.77616e+07 2.82828e+07 2.87396e+07 2.88349e+07 2.88228e+07 2.87839e+07 2.90085e+07
          2.95103e+07 3.03007e+07 3.0451e+07 2.69021e+07 2.69381e+07 2.67557e+07 2.74207e+07 2.84514e+07 2.85494e+07 2.89825e+07 2.93251e+07 2.93935e+07
          2.94737e+07 2.95443e+07 2.99966e+07 3.06062e+07 3.10817e+07 3.08649e+07 2.76438e+07 2.76425e+07 2.76753e+07 2.87752e+07 2.92266e+07 2.92874e+07
          2.95774e+07 2.97856e+07 2.98359e+07 2.9914e+07 3.00644e+07 3.07741e+07 3.13262e+07 3.14954e+07 3.13548e+07 2.83019e+07 2.83261e+07 2.84224e+07
          2.94633e+07 2.96924e+07 2.97467e+07 2.99525e+07 3.00884e+07 3.01369e+07 3.02086e+07 3.0487e+07 3.11676e+07 3.16747e+07 3.19675e+07 3.18165e+07
          2.89819e+07 2.90331e+07 2.94185e+07 2.99574e+07 3.00749e+07 3.01138e+07 3.02224e+07 3.03179e+07 3.03652e+07 3.04272e+07 3.07942e+07 3.16046e+07
          3.21515e+07 3.2438e+07 3.22394e+07 2.95317e+07 2.95914e+07 2.99528e+07 3.02269e+07 3.03468e+07 3.03912e+07 3.04766e+07 3.05484e+07 3.05977e+07
          3.06546e+07 3.11052e+07 3.19621e+07 3.25213e+07 3.27568e+07 3.26601e+07 2.98387e+07 2.99047e+07 3.01184e+07 3.04264e+07 3.05859e+07 3.06335e+07
          3.0709e+07 3.07728e+07 3.08183e+07 3.08732e+07 3.13687e+07 3.2316e+07 3.28889e+07 3.30669e+07 3.32358e+07 3.00856e+07 3.0144e+07 3.03355e+07
          3.06411e+07 3.0798e+07 3.0846e+07 3.09196e+07 3.09803e+07 3.10262e+07 3.10869e+07 3.15782e+07 3.26222e+07 3.32515e+07 3.3393e+07 3.37837e+07
          3.0294e+07 3.03599e+07 3.05125e+07 3.07948e+07 3.0989e+07 3.10416e+07 3.11207e+07 3.11849e+07 3.12456e+07 3.13218e+07 3.20154e+07 3.31324e+07
          3.35893e+07 3.37385e+07 3.42135e+07 3.04939e+07 3.05623e+07 3.06984e+07 3.09739e+07 3.11715e+07 3.1229e+07 3.13204e+07 3.13939e+07 3.14721e+07
          3.15597e+07 3.2495e+07 3.36559e+07 3.3939e+07 3.4119e+07 3.46324e+07 3.06768e+07 3.07394e+07 3.09026e+07 3.11923e+07 3.1354e+07 3.14197e+07
          3.15271e+07 3.16123e+07 3.17127e+07 3.18212e+07 3.29045e+07 3.40913e+07 3.43346e+07 3.45354e+07 3.49371e+07 3.08446e+07 3.09043e+07 3.10477e+07
          3.13376e+07 3.15438e+07 3.16112e+07 3.1732e+07 3.1831e+07 3.19532e+07 3.20984e+07 3.3355e+07 3.44719e+07 3.47417e+07 3.49243e+07 3.52082e+07
        </DataArray>
        <DataArray type="Float32" Name="pressure[2]" NumberOfComponents="1" format="ascii">
          2.09159e+07 2.09305e+07 2.17167e+07 2.25095e+07 2.28229e+07 2.32202e+07 2.33574e+07 2.34074e+07 2.34681e+07 2.35323e+07 2.37133e+07 2.40343e+07
          2.4289e+07 2.49514e+07 2.57343e+07 2.09598e+07 2.09744e+07 2.18609e+07 2.27204e+07 2.30241e+07 2.34217e+07 2.35208e+07 2.35588e+07 2.36197e+07
          2.3692e+07 2.39563e+07 2.42915e+07 2.4486e+07 2.51624e+07 2.59024e+07 2.10038e+07 2.10184e+07 2.1915e+07 2.28907e+07 2.31779e+07 2.35457e+07
          2.36597e+07 2.37135e+07 2.37899e+07 2.38918e+07 2.42664e+07 2.4667e+07 2.4833e+07 2.54353e+07 2.61178e+07 2.10483e+07 2.1064e+07 2.17742e+07
          2.30385e+07 2.33436e+07 2.37267e+07 2.38435e+07 2.38989e+07 2.40262e+07 2.41926e+07 2.46907e+07 2.51226e+07 2.52757e+07 2.57521e+07 2.63863e+07
          2.11316e+07 2.11584e+07 1.97446e+07 2.31823e+07 2.37314e+07 2.43159e+07 2.43966e+07 2.4437e+07 2.4538e+07 2.47982e+07 2.52203e+07 2.55697e+07
          2.56987e+07 2.6099e+07 2.66476e+07 2.13206e+07 2.13636e+07 2.15342e+07 2.38778e+07 2.43821e+07 2.48452e+07 2.4901e+07 2.49522e+07 2.50893e+07
          2.57481e+07 2.58397e+07 2.5934e+07 2.60737e+07 2.64479e+07 2.6939e+07 2.15595e+07 2.16086e+07 2.227e+07 2.4568e+07 2.50112e+07 2.53886e+07
          2.54517e+07 2.55203e+07 2.56093e+07 2.59113e+07 2.61484e+07 2.62217e+07 2.63669e+07 2.68178e+07 2.7342e+07 2.18982e+07 2.19524e+07 2.30632e+07
          2.48382e+07 2.5486e+07 2.58544e+07 2.59098e+07 2.59599e+07 2.60493e+07 2.62549e+07 2.64079e+07 2.64697e+07 2.66802e+07 2.71935e+07 2.78961e+07
          2.23832e+07 2.24472e+07 2.36133e+07 2.47949e+07 2.59683e+07 2.62924e+07 2.639e+07 2.64816e+07 2.65232e+07 2.66119e+07 2.66764e+07 2.67047e+07
          2.69309e+07 2.76121e+07 2.84458e+07 2.29643e+07 2.30637e+07 2.37953e+07 2.45526e+07 2.64481e+07 2.66852e+07 2.69002e+07 2.70966e+07 2.7007e+07
          2.69845e+07 2.69954e+07 2.70222e+07 2.72718e+07 2.80397e+07 2.87728e+07 2.38202e+07 2.3924e+07 2.44414e+07 2.49726e+07 2.68026e+07 2.69811e+07
          2.73239e+07 2.76176e+07 2.74618e+07 2.73761e+07 2.73277e+07 2.73437e+07 2.75633e+07 2.84241e+07 2.90447e+07 2.46803e+07 2.50588e+07 2.52606e+07
          2.56555e+07 2.71615e+07 2.72731e+07 2.77585e+07 2.81521e+07 2.81974e+07 2.78101e+07 2.77711e+07 2.79348e+07 2.84516e+07 2.89298e+07 2.97902e+07
          2.59561e+07 2.60069e+07 2.60162e+07 2.63606e+07 2.7649e+07 2.77616e+07 2.82828e+07 2.87396e+07 2.88349e+07 2.88228e+07 2.87839e+07 2.90085e+07
          2.95103e+07 3.03007e+07 3.0451e+07 2.69021e+07 2.69381e+07 2.67557e+07 2.74207e+07 2.84514e+07 2.85494e+07 2.89825e+07 2.93251e+07 2.93935e+07
          2.94737e+07 2.95443e+07 2.99966e+07 3.06062e+07 3.10817e+07 3.08649e+07 2.76438e+07 2.76425e+07 2.76753e+07 2.87752e+07 2.92266e+07 2.92874e+07
          2.95774e+07 2.97856e+07 2.98359e+07 2.9914e+07 3.00644e+07 3.07741e+07 3.13262e+07 3.14954e+07 3.13548e+07 2.83019e+07 2.83261e+07 2.84224e+07
          2.94633e+07 2.96924e+07 2.97467e+07 2.99525e+07 3.00884e+07 3.01369e+07 3.02086e+07 3.0487e+07 3.11676e+07 3.16747e+07 3.19675e+07 3.18165e+07
          2.89819e+07 2.90331e+07 2.94185e+07 2.99574e+07 3.00749e+07 3.01138e+07 3.02224e+07 3.03179e+07 3.03652e+07 3.04272e+07 3.07942e+07 3.16046e+07
          3.21515e+07 3.2438e+07 3.22394e+07 2.95317e+07 2.95914e+07 2.99528e+07 3.02269e+07 3.03468e+07 3.03912e+07 3.04766e+07 3.05484e+07 3.05977e+07
          3.06546e+07 3.11052e+07 3.19621e+07 3.25213e+07 3.27568e+07 3.26601e+07 2.98387e+07 2.99047e+07 3.01184e+07 3.04264e+07 3.05859e+07 3.06335e+07
          3.0709e+07 3.07728e+07 3.08183e+07 3.08732e+07 3.13687e+07 3.2316e+07 3.28889e+07 3.30669e+07 3.32358e+07 3.00856e+07 3.0144e+07 3.03355e+07
          3.06411e+07 3.0798e+07 3.0846e+07 3.09196e+07 3.09803e+07 3.10262e+07 3.10869e+07 3.15782e+07 3.26222e+07 3.32515e+07 3.3393e+07 3.37837e+07
          3.0294e+07 3.03599e+07 3.05125e+07 3.07948e+07 3.0989e+07 3.10416e+07 3.11207e+07 3.11849e+07 3.12456e+07 3.13218e+07 3.20154e+07 3.31324e+07
          3.35893e+07 3.37385e+07 3.42135e+07 3.04939e+07 3.05623e+07 3.06984e+07 3.09739e+07 3.11715e+07 3.1229e+07 3.13204e+07 3.13939e+07 3.14721e+07
          3.15597e+07 3.2495e+07 3.36559e+07 3.3939e+07 3.4119e+07 3.46324e+07 3.06768e+07 3.07394e+07 3.09026e+07 3.11923e+07 3.1354e+07 3.14197e+07
          3.15271e+07 3.16123e+07 3.17127e+07 3.18212e+07 3.29045e+07 3.40913e+07 3.43346e+07 3.45354e+07 3.49371e+07 3.08446e+07 3.09043e+07 3.10477e+07
          3.13376e+07 3.15438e+07 3.16112e+07 3.1732e+07 3.1831e+07 3.19532e+07 3.20984e+07 3.3355e+07 3.44719e+07 3.47417e+07 3.49243e+07 3.52082e+07
        </DataArray>
        <DataArray type="Float32" Name="velocity[0]" NumberOfComponents="1" format="ascii">
          -5.11399e-10 4.33052e-08 -4.67017e-11 -2.03514e-08 -6.33969e-10 -2.28662e-09 -3.82969e-09 -1.51367e-09 -2.90648e-09 -3.30271e-09 -2.32958e-09 -3.60033e-09
          -2.62648e-09 -7.70313e-10 -2.84619e-09 -2.6316e-09 1.25408e-07 4.38451e-10 -6.90153e-08 -7.70978e-10 -1.45212e-09 -3.37165e-09 -3.46257e-09 -8.75401e-09
          -9.66966e-09 -5.16106e-09 -1.5278e-08 -9.51725e-09 -2.30041e-09 -7.5122e-09 -1.16084e-08 1.85029e-07 1.48119e-09 -8.11122e-08 -6.58096e-10 -1.98291e-09
          -5.90716e-09 -7.94324e-09 -1.4217e-08 -1.59846e-08 -6.76537e-09 -3.8498e-08 -1.30997e-08 -4.56722e-09 -1.11189e-08 -1.78971e-08 2.12506e-07 7.94978e-09
          -2.93423e-08 -2.42672e-09 -1.60366e-08 -3.25342e-08 -3.17614e-08 -2.30519e-08 -2.45201e-08 -9.41638e-09 -6.75178e-08 -9.0547e-09 -6.25269e-09 -1.4888e-08
          -7.48984e-08 1.08018e-08 2.36943e-09 -6.42316e-08 -7.84185e-09 -4.2927e-08 -6.28779e-08 -6.04505e-08 -2.2941e-08 -2.66165e-08 -1.32059e-08 -1.05889e-07
          -4.36757e-09 -5.54022e-09 -1.80475e-08 -1.4403e-07 -1.81783e-07 -6.06366e-09 -9.40141e-08 -1.37099e-08 -9.66305e-08 -6.60696e-08 -9.05828e-08 -1.37306e-08
          -1.18395e-08 -1.23139e-08 -1.32357e-07 -2.41906e-09 -4.3335e-09 -2.00603e-08 -1.50455e-07 -1.6324e-07 -3.44875e-09 -2.9811e-08 -1.20103e-08 -1.54065e-07
          -4.97348e-08 -1.50056e-07 -8.77194e-09 -1.06654e-09 -1.13777e-08 -1.38582e-07 -1.85241e-09 -4.11299e-09 -2.14048e-08 -1.3931e-07 -1.5271e-07 -3.74698e-09
          -1.80922e-09 -7.41748e-09 -1.82967e-07 -2.84187e-08 -2.24397e-07 -5.68739e-09 -1.94537e-09 -1.48194e-08 -1.4246e-07 -1.42216e-09 -4.104e-09 -2.29507e-08
          -1.25353e-07 -1.36669e-07 -2.0301e-09 3.82895e-09 -6.26714e-09 -1.99854e-07 -1.09819e-08 -2.91703e-07 -4.14116e-09 -2.16234e-09 -2.443e-08 -1.29948e-07
          -1.27353e-09 -3.67606e-09 -2.50324e-08 -1.00357e-07 -1.20059e-07 -8.12402e-09 1.29425e-09 -5.20674e-09 -2.07075e-07 -3.77794e-09 -3.58088e-07 -3.78648e-09
          -2.76759e-09 -4.21235e-08 -1.01574e-07 -1.7968e-09 -3.31056e-09 -2.71039e-08 -7.54441e-08 -8.45424e-08 -2.84457e-08 -2.46908e-09 -4.90955e-09 -2.08807e-07
          -1.29167e-09 -4.21059e-07 -4.438e-09 -4.37408e-09 -6.28771e-08 -6.04332e-08 -3.8613e-09 -4.69683e-09 -2.87446e-08 -5.14759e-08 -5.49316e-08 -4.96821e-08
          -2.53384e-09 -7.49822e-09 -2.13769e-07 -1.08318e-09 -4.62013e-07 -1.42336e-08 -6.00765e-09 -5.64721e-08 -3.30979e-08 -1.09422e-08 -7.6987e-09 -2.97995e-08
          -3.48707e-08 -6.24687e-08 -4.6426e-08 -3.09914e-09 -1.22213e-08 -2.03645e-07 -1.55627e-09 -4.71591e-07 -4.25706e-08 -6.84034e-09 -3.00324e-08 -1.97736e-08
          -2.38939e-08 -1.29035e-08 -3.01003e-08 -3.62251e-08 -7.54064e-08 -2.72345e-08 -3.60621e-09 -1.81032e-08 -1.88999e-07 -1.58996e-09 -4.42859e-07 -7.42066e-08
          -1.15729e-08 -1.68096e-08 -6.07573e-09 -2.95489e-08 -2.34892e-08 -2.85699e-08 -4.41688e-08 -7.06815e-08 -1.53066e-08 -2.9864e-09 -2.40576e-08 -1.86643e-07
          -1.12296e-09 -3.99172e-07 -8.94975e-08 -1.96583e-08 -1.16111e-08 -3.22703e-09 -2.77849e-08 -3.68591e-08 -2.5285e-08 -5.43554e-08 -5.62264e-08 -7.49873e-09
          -3.06308e-09 -2.98335e-08 -1.84055e-07 -1.38191e-09 -3.38323e-07 -9.33742e-08 -2.82262e-08 -7.28314e-09 -4.42503e-09 -3.16095e-08 -5.43388e-08 -2.11283e-08
          -5.79817e-08 -4.43243e-08 -3.51379e-09 -4.04096e-09 -4.22532e-08 -1.6095e-07 -2.67926e-09 -2.67584e-07 -9.39816e-08 -4.41477e-08 -3.12891e-09 -4.39274e-09
          -2.58162e-08 -8.06625e-08 -1.66851e-08 -5.66051e-08 -3.50842e-08 -1.49247e-09 -2.70266e-09 -6.23968e-08 -1.15759e-07 -4.12021e-09 -2.04511e-07 -1.01391e-07
          -6.65913e-08 -2.23799e-09 -2.9788e-09 -1.67812e-08 -1.05411e-07 -1.29637e-08 -5.0772e-08 -2.49426e-08 -1.02345e-09 -1.08816e-09 -7.74846e-08 -7.3628e-08
          -4.34155e-09 -1.46051e-07 -1.01385e-07 -1.04718e-07 -1.30601e-09 -2.45843e-09 -2.19489e-08 -1.20454e-07 -1.13144e-08 -4.1985e-08 -1.67663e-08 -1.26616e-09
          -5.19469e-10 -8.28346e-08 -4.20063e-08 -3.63298e-09 -1.06912e-07 -6.563e-08 -1.818e-07 -2.28395e-09 -3.4957e-09 -3.26486e-08 -1.27701e-07 -1.21487e-08
          -3.20351e-08 -1.12977e-08 -1.18168e-09 -1.21626e-10 -7.72237e-08 -2.20521e-08 -3.12463e-09 -8.41454e-08 -2.74924e-08 -2.5252e-07 -3.58354e-09 -6.43968e-09
          -3.97382e-08 -1.3342e-07 -1.39333e-08 -2.01271e-08 -5.75286e-09 -1.90111e-09 -7.2489e-10 -5.72272e-08 -1.50639e-08 -3.06522e-09 -7.96064e-08 -1.49376e-08
          -2.67157e-07 -3.27184e-09 -1.2381e-08 -4.34968e-08 -1.39217e-07 -1.72707e-08 -9.38388e-09 -2.29452e-09 -8.55701e-10 -4.77875e-10 -2.86554e-08 -1.12888e-08
          -2.52254e-09 -8.42189e-08 -1.20555e-08 -2.30305e-07 -4.54125e-09 -2.13514e-08 -5.69858e-08 -1.44995e-07 -2.25272e-08 -2.48363e-09 -5.15618e-10 1.93656e-10
          7.52189e-11 -6.7915e-09 -4.31686e-09 -9.24853e-10 -4.29718e-08 -5.6187e-09 -9.96002e-08 -2.99596e-09 -1.29528e-08 -3.40116e-08 -7.4506e-08 -1.26441e-08
        </DataArray>
        <DataArray type="Float32" Name="velocity[1]" NumberOfComponents="1" format="ascii">
          7.94774e-26 6.77123e-24 -1.81738e-25 -3.16284e-24 9.85263e-26 0 5.95178e-25 4.98283e-26 -3.37998e-25 5.39453e-24 -2.95093e-24 -2.30803e-25
          2.26982e-24 -1.01827e-24 4.45342e-25 2.50026e-25 5.99942e-24 -1.92945e-25 -4.40011e-24 2.18811e-25 7.5526e-24 1.87762e-24 6.55657e-25 -7.50623e-24
          5.5085e-25 0 2.08848e-25 -2.38561e-25 -5.03609e-27 2.8282e-25 1.14508e-24 -8.65764e-24 -2.36657e-24 2.52011e-24 5.84655e-25 0
          1.44233e-24 7.95442e-25 -3.91939e-25 0 6.76747e-24 -1.17033e-23 0 1.09989e-24 -2.72238e-25 -4.93878e-25 1.4239e-23 -2.05924e-24
          3.09463e-24 6.53771e-25 9.72945e-24 -2.20751e-23 2.82257e-23 -1.98145e-24 1.73869e-25 3.59431e-24 -4.36264e-24 2.55206e-24 -1.22136e-24 9.21444e-25
          6.94111e-26 -6.47623e-23 3.1382e-24 4.04634e-24 3.2983e-25 -2.11744e-24 -2.17937e-25 8.5451e-26 1.63456e-24 -4.43441e-24 3.79007e-24 -7.37453e-24
          3.16944e-26 1.44451e-25 -1.49388e-24 3.62313e-26 4.90248e-24 -2.98176e-25 3.88481e-24 -1.48014e-25 -5.42918e-24 0 3.95359e-25 5.91429e-24
          -6.29377e-24 -5.44783e-25 9.533e-24 -1.13532e-24 6.50069e-25 1.49901e-24 -7.26907e-25 4.52532e-25 0 3.22139e-24 -6.90452e-25 -1.0248e-23
          2.2166e-25 4.11981e-26 -1.14751e-24 -6.3269e-26 1.07615e-25 7.80297e-26 -3.49e-26 6.5173e-27 -1.62373e-24 -1.83377e-26 1.11429e-23 1.26475e-24
          1.8117e-24 1.55621e-25 1.1989e-23 1.82732e-26 2.69275e-26 3.24121e-25 3.24826e-26 -1.86024e-24 -1.0341e-23 3.39642e-26 -2.89789e-25 1.86397e-24
          -1.19476e-24 -7.32971e-24 2.60184e-25 -3.30374e-24 -1.56359e-26 2.37419e-24 0 0 3.27143e-25 -3.43026e-26 1.92072e-25 3.77291e-24
          5.7947e-26 5.93261e-26 1.75185e-27 -9.1627e-24 1.47434e-24 1.56015e-24 -6.93249e-25 -2.25427e-24 2.72906e-24 -5.11897e-24 5.46314e-24 -1.96378e-25
          -4.33027e-26 2.02095e-25 3.34294e-24 -7.64617e-25 0 -2.02636e-24 4.44857e-24 7.63515e-26 1.97416e-24 -1.92128e-25 2.17376e-24 -2.79388e-27
          -3.3349e-24 8.64607e-24 3.82663e-26 1.59899e-25 -5.89292e-25 5.17383e-24 1.54078e-24 -1.8726e-25 9.36301e-26 -2.70896e-24 9.98582e-25 -1.33015e-24
          -2.05611e-27 -1.44561e-24 -1.67861e-23 2.81303e-26 2.04386e-24 -3.20862e-24 -5.78276e-26 1.31112e-24 1.93338e-24 -9.23637e-25 8.54541e-25 -6.70093e-26
          2.7102e-24 4.08235e-24 0 -8.56109e-26 4.37195e-25 1.92299e-24 4.78004e-26 -5.52007e-25 -2.9394e-24 4.23384e-27 -1.67168e-24 -6.89998e-25
          1.20781e-24 -7.19334e-25 -1.23969e-27 2.09086e-25 -2.63679e-27 7.23761e-25 1.04073e-26 2.70552e-27 1.40516e-23 -3.82357e-26 -3.91161e-24 5.46451e-24
          -1.03386e-24 1.66472e-24 1.86632e-24 -3.74914e-24 6.97327e-28 -2.11104e-24 -2.91193e-24 -4.90019e-24 3.20143e-27 2.76821e-25 4.4691e-25 -6.46491e-28
          -3.24184e-26 -7.06302e-24 1.85985e-24 0 0 2.54243e-25 3.19876e-24 -4.05633e-25 3.93054e-24 0 1.04927e-24 0
          -2.88738e-25 4.5262e-25 -6.57252e-28 7.26612e-26 -6.57802e-24 9.29598e-28 6.68529e-28 6.2829e-28 3.42464e-24 6.07251e-28 -1.01526e-24 -1.81679e-24
          -2.13618e-28 8.01074e-25 8.82903e-28 -5.1741e-26 1.48025e-24 -8.39243e-24 0 -8.68793e-24 0 -3.51937e-28 2.5376e-24 -3.14587e-24
          -1.44251e-24 -7.65543e-29 1.12708e-24 0 3.04404e-24 0 3.39501e-25 1.44981e-24 4.04944e-24 9.37264e-26 -5.38718e-24 -4.6298e-24
          -1.76906e-24 1.49627e-25 4.37421e-26 2.86639e-28 -1.47367e-24 -8.87625e-25 3.60194e-24 -1.85947e-24 2.01288e-24 -1.63376e-24 6.94434e-25 7.08396e-24
          -5.93397e-26 -3.69799e-24 8.5083e-24 4.52999e-24 -2.72477e-24 5.90714e-26 7.64398e-25 -1.27767e-28 8.70768e-25 5.80683e-28 -3.27969e-24 7.12521e-25
          -1.48937e-24 2.74799e-25 -2.19141e-24 -1.00309e-25 -4.76806e-24 -4.30016e-24 7.82425e-24 2.21956e-25 2.92063e-24 8.98784e-25 -2.92759e-25 -7.24248e-25
          -8.67416e-25 5.20598e-25 0 -3.34016e-26 -1.00974e-24 3.68145e-24 -6.47083e-24 6.47357e-24 -4.71124e-24 5.82418e-28 0 0
          2.03132e-25 -3.83601e-28 1.14812e-24 -9.83229e-25 -1.03662e-24 9.53988e-25 -1.60273e-24 -6.50954e-25 -1.08252e-24 1.79264e-26 4.48567e-25 -3.08135e-24
          1.10982e-23 -2.11954e-25 -5.33166e-24 3.80873e-25 7.76165e-25 1.87808e-28 -6.85763e-25 -6.23899e-28 -7.4419e-28 9.55129e-26 -2.34325e-24 4.13595e-25
          -1.04567e-25 8.41849e-24 -3.4952e-24 0 -2.25452e-25 -7.07615e-25 5.4229e-24 -6.2481e-25 0 -3.86606e-25 -6.90738e-28 -3.15432e-25
          5.3375e-25 -1.05463e-24 -1.78129e-24 -2.89589e-25 -2.24262e-24 8.73212e-25 -2.41932e-23 0 2.42156e-23 -1.77827e-23 1.47094e-23 3.68955e-25
        </DataArray>
        <DataArray type="Float32" Name="velocity[2]" NumberOfComponents="1" format="ascii">
          -1.27269e-10 5.40993e-09 -4.4838e-09 -7.24956e-09 -2.9246e-09 -3.29545e-09 -3.55113e-09 -3.10216e-09 -3.29531e-09 -3.26472e-09 -2.99937e-09 -3.05932e-09
          -2.69325e-09 -2.15945e-09 -1.44415e-09 -4.2965e-10 2.02522e-08 -3.86794e-09 -1.49576e-08 -1.74087e-09 -2.2565e-09 -3.04603e-09 -3.2651e-09 -4.16799e-09
          -4.22817e-09 -3.4533e-09 -4.90507e-09 -3.3033e-09 -1.72755e-09 -1.92499e-09 -1.62432e-09 3.23895e-08 -1.24748e-09 -1.69151e-08 -3.71267e-09 -3.9603e-09
          -4.48029e-09 -4.64363e-09 -5.63941e-09 -5.85122e-09 -4.17845e-09 -8.98489e-09 -3.84058e-09 -2.2329e-09 -2.55041e-09 -3.29516e-09 3.68059e-08 -2.68283e-10
          -9.34118e-09 -6.4651e-09 -8.48045e-09 -1.05269e-08 -9.40341e-09 -7.08143e-09 -6.90994e-09 -4.11035e-09 -1.35877e-08 -2.72559e-09 -2.43684e-09 -3.27966e-09
          -9.36482e-09 6.83796e-09 8.49721e-10 -1.39461e-08 -5.14617e-09 -1.04718e-08 -1.30435e-08 -1.21487e-08 -5.81967e-09 -7.44694e-09 -5.44828e-09 -2.03092e-08
          -1.13194e-09 -1.5955e-09 -3.56912e-09 -2.4676e-08 -3.14195e-08 -1.59095e-09 -1.95393e-08 -7.42241e-09 -2.03134e-08 -1.3476e-08 -1.75355e-08 -4.71123e-09
          -3.98313e-09 -2.54021e-09 -2.37193e-08 -7.87829e-10 -1.24921e-09 -3.81031e-09 -2.6842e-08 -2.95397e-08 -1.50002e-09 -7.40135e-09 -5.74687e-09 -3.01403e-08
          -1.11285e-08 -2.8083e-08 -2.34706e-09 -1.1623e-09 -2.86888e-09 -2.49791e-08 -6.59061e-10 -1.06375e-09 -3.93918e-09 -2.49918e-08 -2.81372e-08 -2.14862e-09
          -2.0895e-09 -3.54801e-09 -3.42693e-08 -7.00551e-09 -4.09374e-08 -1.47648e-09 -8.87569e-10 -3.11427e-09 -2.56153e-08 -8.38361e-10 -1.38233e-09 -4.38827e-09
          -2.25789e-08 -2.54255e-08 -2.20608e-09 -1.41202e-09 -3.29113e-09 -3.70373e-08 -3.48921e-09 -5.22855e-08 -7.97511e-10 -4.93889e-10 -3.91338e-09 -2.27545e-08
          -8.06247e-10 -1.27839e-09 -4.75776e-09 -1.88381e-08 -2.38129e-08 -3.80301e-09 -1.36357e-09 -2.41349e-09 -3.81098e-08 -2.36643e-09 -6.39622e-08 -5.37414e-10
          -3.34449e-10 -6.68776e-09 -1.75843e-08 -9.75897e-10 -1.25046e-09 -5.11802e-09 -1.37506e-08 -1.71371e-08 -7.51068e-09 -1.85938e-09 -2.25343e-09 -3.80464e-08
          -1.33955e-09 -7.46276e-08 -4.03134e-10 -3.32155e-10 -9.89492e-09 -1.02565e-08 -1.66862e-09 -1.46441e-09 -5.26946e-09 -1.02553e-08 -1.22036e-08 -1.06979e-08
          -1.64307e-09 -2.41625e-09 -3.8582e-08 -9.69455e-10 -8.18917e-08 -2.01908e-09 9.78946e-12 -1.00109e-08 -7.17764e-09 -3.07917e-09 -1.90453e-09 -5.39836e-09
          -6.14819e-09 -1.05154e-08 -8.21034e-09 -1.56577e-09 -2.99832e-09 -3.7181e-08 -2.11575e-09 -8.50859e-08 -8.39608e-09 -9.48663e-10 -5.5732e-09 -4.96806e-09
          -5.83494e-09 -2.77765e-09 -5.2554e-09 -6.29668e-09 -1.29665e-08 -4.96779e-09 -1.44743e-09 -3.84272e-09 -3.39143e-08 -9.87743e-10 -7.94618e-08 -1.43768e-08
          -2.39688e-09 -3.43856e-09 -2.00812e-09 -6.45555e-09 -4.36914e-09 -4.57215e-09 -7.34531e-09 -1.19645e-08 -2.98138e-09 -1.23222e-09 -4.82402e-09 -3.33441e-08
          -6.40476e-10 -7.13296e-08 -1.70638e-08 -4.44714e-09 -2.91765e-09 -1.47969e-09 -5.79113e-09 -6.30061e-09 -3.82519e-09 -9.34493e-09 -9.77311e-09 -1.80384e-09
          -1.27452e-09 -5.80845e-09 -3.29658e-08 -8.59459e-10 -6.139e-08 -1.9248e-08 -7.48783e-09 -3.83793e-09 -3.49687e-09 -7.98152e-09 -9.91255e-09 -2.96968e-09
          -1.02217e-08 -8.06869e-09 -1.1916e-09 -1.33013e-09 -7.54493e-09 -2.89292e-08 -1.96029e-09 -4.94077e-08 -1.9596e-08 -1.0412e-08 -2.76565e-09 -3.09131e-09
          -7.56479e-09 -1.53109e-08 -2.21372e-09 -1.00759e-08 -6.58024e-09 -9.76273e-10 -1.38791e-09 -1.14272e-08 -2.14149e-08 -2.86871e-09 -3.90992e-08 -2.13612e-08
          -1.42837e-08 -2.5114e-09 -2.68105e-09 -5.10674e-09 -1.91381e-08 -1.77107e-09 -9.24592e-09 -5.28982e-09 -1.30335e-09 -1.23943e-09 -1.44707e-08 -1.43715e-08
          -2.98323e-09 -2.86167e-08 -2.18622e-08 -2.1867e-08 -2.59093e-09 -2.84589e-09 -5.97795e-09 -2.20929e-08 -1.95803e-09 -7.69343e-09 -3.64501e-09 -1.07094e-09
          -1.0236e-09 -1.55228e-08 -8.93409e-09 -2.83399e-09 -2.14634e-08 -1.62524e-08 -3.63826e-08 -2.62387e-09 -2.66204e-09 -7.33218e-09 -2.34264e-08 -2.45592e-09
          -6.02121e-09 -2.90457e-09 -1.24367e-09 -1.00121e-09 -1.49329e-08 -5.82527e-09 -2.76715e-09 -1.72572e-08 -8.0954e-09 -4.75898e-08 -2.88683e-09 -3.30735e-09
          -9.00039e-09 -2.47598e-08 -2.73718e-09 -3.97112e-09 -1.96846e-09 -1.38252e-09 -1.13969e-09 -1.18044e-08 -5.14245e-09 -3.07598e-09 -1.64925e-08 -5.13659e-09
          -4.99651e-08 -3.67443e-09 -5.02722e-09 -1.00856e-08 -2.65063e-08 -3.8771e-09 -1.9494e-09 -1.05739e-09 -9.75187e-10 -1.04847e-09 -6.85301e-09 -4.71903e-09
          -3.31558e-09 -1.76935e-08 -4.9724e-09 -4.47503e-08 -6.0922e-09 -8.69109e-09 -1.39653e-08 -2.80783e-08 -4.89266e-09 -6.03788e-10 -4.48607e-10 -3.33179e-10
          -3.34281e-10 -1.9042e-09 -2.03211e-09 -1.6606e-09 -1.02457e-08 -5.14294e-09 -2.60347e-08 -1.11565e-08 -9.77873e-09 -1.11649e-08 -1.56077e-08 -2.62526e-09
        </DataArray>
        <DataArray type="Float32" Name="z[0]" NumberOfComponents="1" format="ascii">
          0.150578 0.150579 0.15058 0.150582 0.150582 0.150583 0.150584 0.150585 0.150585 0.150586 0.150587 0.150588
          0.150589 0.150591 0.150596 0.150581 0.150582 0.150583 0.150585 0.150586 0.150587 0.150587 0.150588 0.150588
          0.150589 0.15059 0.150591 0.150593 0.150595 0.150599 0.150584 0.150585 0.150587 0.150588 0.150589 0.15059
          0.150591 0.150592 0.150592 0.150593 0.150593 0.150595 0.150596 0.150598 0.150602 0.150588 0.150589 0.15059
          0.150591 0.153366 0.193065 0.224726 0.274286 0.150595 0.150596 0.150597 0.150598 0.150599 0.150601 0.150605
          0.150591 0.150592 0.165621 0.410694 0.410633 0.418709 0.404713 0.394966 0.150598 0.150599 0.1506 0.150601
          0.150602 0.150604 0.150609 0.150594 0.150595 0.175929 0.437343 0.45594 0.458842 0.439269 0.423875 0.150601
          0.150602 0.150603 0.150604 0.150605 0.150607 0.150612 0.150597 0.150598 0.180205 0.43991 0.4658 0.471381