<?xml version="1.0"?>
<VTKFile type="UnstructuredGrid" version="0.1" byte_order="LittleEndian">
  <UnstructuredGrid>
    <Piece NumberOfCells="360" NumberOfPoints="800">
      <CellData Scalars="pressure[0]">
        <DataArray type="Float32" Name="pressure[0]" NumberOfComponents="1" format="ascii">
          2.11327e+07 2.11469e+07 2.1862e+07 2.25874e+07 2.29757e+07 2.33768e+07 2.35023e+07 2.35489e+07 2.36065e+07 2.36692e+07 2.38357e+07 2.41118e+07
          2.43171e+07 2.4905e+07 2.56267e+07 2.11796e+07 2.11967e+07 2.19835e+07 2.27443e+07 2.31538e+07 2.35562e+07 2.36482e+07 2.36848e+07 2.37435e+07
          2.3813e+07 2.40413e+07 2.43197e+07 2.44892e+07 2.50983e+07 2.5792e+07 2.128e+07 2.1327e+07 2.20882e+07 2.28958e+07 2.32652e+07 2.36429e+07
          2.37527e+07 2.38046e+07 2.38789e+07 2.39709e+07 2.42754e+07 2.45889e+07 2.47631e+07 2.53352e+07 2.59996e+07 2.14089e+07 2.14554e+07 2.1941e+07
          2.30321e+07 2.34084e+07 2.37773e+07 2.3877e+07 2.39234e+07 2.40307e+07 2.41657e+07 2.4566e+07 2.49394e+07 2.51181e+07 2.56169e+07 2.62567e+07
          2.15406e+07 2.15623e+07 1.98124e+07 2.31335e+07 2.3627e+07 2.40076e+07 2.40715e+07 2.41058e+07 2.42667e+07 2.45047e+07 2.49256e+07 2.52751e+07
          2.54624e+07 2.5935e+07 2.65099e+07 2.17475e+07 2.17903e+07 2.24773e+07 2.37078e+07 2.4028e+07 2.4273e+07 2.43153e+07 2.43502e+07 2.45558e+07
          2.49301e+07 2.53524e+07 2.55782e+07 2.57812e+07 2.62534e+07 2.67934e+07 2.20162e+07 2.20677e+07 2.32443e+07 2.41739e+07 2.43806e+07 2.45449e+07
          2.45848e+07 2.4618e+07 2.48124e+07 2.53243e+07 2.57411e+07 2.58463e+07 2.60406e+07 2.65979e+07 2.71868e+07 2.24053e+07 2.24615e+07 2.36308e+07
          2.4507e+07 2.46967e+07 2.48141e+07 2.48432e+07 2.4867e+07 2.5115e+07 2.5647e+07 2.60052e+07 2.60911e+07 2.63508e+07 2.69562e+07 2.77293e+07
          2.29708e+07 2.30356e+07 2.39651e+07 2.47758e+07 2.50068e+07 2.51034e+07 2.51429e+07 2.51925e+07 2.55187e+07 2.60342e+07 2.62858e+07 2.63306e+07
          2.65942e+07 2.73655e+07 2.8273e+07 2.36548e+07 2.37608e+07 2.42527e+07 2.48715e+07 2.52822e+07 2.53667e+07 2.54676e+07 2.58067e+07 2.60617e+07
          2.64463e+07 2.66312e+07 2.66714e+07 2.69528e+07 2.77804e+07 2.85989e+07 2.44132e+07 2.45289e+07 2.47949e+07 2.51995e+07 2.5516e+07 2.55784e+07
          2.57446e+07 2.63643e+07 2.65758e+07 2.68323e+07 2.6989e+07 2.70421e+07 2.72887e+07 2.81275e+07 2.88409e+07 2.51586e+07 2.52296e+07 2.53439e+07
          2.55615e+07 2.57443e+07 2.57843e+07 2.6016e+07 2.69469e+07 2.70826e+07 2.72353e+07 2.73583e+07 2.74295e+07 2.76907e+07 2.84816e+07 2.91006e+07
          2.5723e+07 2.57703e+07 2.57975e+07 2.59481e+07 2.60496e+07 2.60713e+07 2.63552e+07 2.74892e+07 2.7543e+07 2.76726e+07 2.77893e+07 2.7927e+07
          2.81816e+07 2.88376e+07 2.94659e+07 2.61744e+07 2.62234e+07 2.62568e+07 2.64708e+07 2.65743e+07 2.65494e+07 2.69023e+07 2.80405e+07 2.80864e+07
          2.81517e+07 2.82132e+07 2.83934e+07 2.94744e+07 3.02319e+07 2.99441e+07 2.65397e+07 2.65796e+07 2.67948e+07 2.71838e+07 2.73576e+07 2.75688e+07
          2.78008e+07 2.85443e+07 2.85871e+07 2.86195e+07 2.86609e+07 2.96088e+07 3.05543e+07 3.07459e+07 3.05295e+07 2.68553e+07 2.69302e+07 2.73077e+07
          2.77497e+07 2.81875e+07 2.82762e+07 2.86244e+07 2.89068e+07 2.89595e+07 2.90416e+07 2.93603e+07 3.027e+07 3.09634e+07 3.13295e+07 3.10826e+07
          2.7401e+07 2.7417e+07 2.77883e+07 2.84006e+07 2.8768e+07 2.88176e+07 2.89901e+07 2.9148e+07 2.91989e+07 2.92666e+07 2.97437e+07 3.08265e+07
          3.1555e+07 3.19085e+07 3.15881e+07 2.81718e+07 2.82258e+07 2.84406e+07 2.89071e+07 2.9109e+07 2.91565e+07 2.92831e+07 2.93929e+07 2.94466e+07
          2.95079e+07 3.01062e+07 3.12561e+07 3.19994e+07 3.22829e+07 3.20929e+07 2.85111e+07 2.85764e+07 2.87963e+07 2.91884e+07 2.93939e+07 2.94433e+07
          2.9546e+07 2.96351e+07 2.96837e+07 2.97422e+07 3.0403e+07 3.16778e+07 3.24402e+07 3.26453e+07 3.28062e+07 2.87817e+07 2.88411e+07 2.90618e+07
          2.94408e+07 2.96327e+07 2.96823e+07 2.97774e+07 2.98575e+07 2.99065e+07 2.99732e+07 3.06279e+07 3.20349e+07 3.28743e+07 3.30295e+07 3.34839e+07
          2.90045e+07 2.9074e+07 2.92521e+07 2.95999e+07 2.98385e+07 2.98943e+07 2.99941e+07 3.00764e+07 3.0146e+07 3.02341e+07 3.11648e+07 3.26708e+07
          3.32746e+07 3.34401e+07 3.40061e+07 2.92166e+07 2.92895e+07 2.94477e+07 2.97878e+07 3.00311e+07 3.00936e+07 3.02087e+07 3.03022e+07 3.03958e+07
          3.04997e+07 3.17598e+07 3.33245e+07 3.36907e+07 3.38982e+07 3.45143e+07 2.94067e+07 2.94723e+07 2.96663e+07 3.00262e+07 3.02233e+07 3.0297e+07
          3.04331e+07 3.05418e+07 3.06654e+07 3.07979e+07 3.22589e+07 3.38579e+07 3.41692e+07 3.4405e+07 3.48695e+07 2.95771e+07 2.96389e+07 2.98074e+07
          3.01687e+07 3.04253e+07 3.0501e+07 3.0655e+07 3.07823e+07 3.09353e+07 3.11175e+07 3.28143e+07 3.43172e+07 3.46643e+07 3.4875e+07 3.51797e+07
        </DataArray>
        <DataArray type="Float32" Name="pressure[1]" NumberOfComponents="1" format="ascii">
          2.11327e+07 2.11469e+07 2.1862e+07 2.25874e+07 2.29757e+07 2.33768e+07 2.35023e+07 2.35489e+07 2.36065e+07 2.36692e+07 2.38357e+07 2.41118e+07
          2.43171e+07 2.4905e+07 2.56267e+07 2.11796e+07 2.11967e+07 2.19835e+07 2.27443e+07 2.31538e+07 2.35562e+07 2.36482e+07 2.36848e+07 2.37435e+07
          2.3813e+07 2.40413e+07 2.43197e+07 2.44892e+07 2.50983e+07 2.5792e+07 2.128e+07 2.1327e+07 2.20882e+07 2.28958e+07 2.32652e+07 2.36429e+07
          2.37527e+07 2.38046e+07 2.38789e+07 2.39709e+07 2.42754e+07 2.45889e+07 2.47631e+07 2.53352e+07 2.59996e+07 2.14089e+07 2.14554e+07 2.1941e+07
          2.30321e+07 2.34084e+07 2.37773e+07 2.3877e+07 2.39234e+07 2.40307e+07 2.41657e+07 2.4566e+07 2.49394e+07 2.51181e+07 2.56169e+07 2.62567e+07
          2.15406e+07 2.15623e+07 1.98124e+07 2.31335e+07 2.3627e+07 2.40076e+07 2.40715e+07 2.41058e+07 2.42667e+07 2.45047e+07 2.49256e+07 2.52751e+07
          2.54624e+07 2.5935e+07 2.65099e+07 2.17475e+07 2.17903e+07 2.24773e+07 2.37078e+07 2.4028e+07 2.4273e+07 2.43153e+07 2.43502e+07 2.45558e+07
          2.49301e+07 2.53524e+07 2.55782e+07 2.57812e+07 2.62534e+07 2.67934e+07 2.20162e+07 2.20677e+07 2.32443e+07 2.41739e+07 2.43806e+07 2.45449e+07
          2.45848e+07 2.4618e+07 2.48124e+07 2.53243e+07 2.57411e+07 2.58463e+07 2.60406e+07 2.65979e+07 2.71868e+07 2.24053e+07 2.24615e+07 2.36308e+07
          2.4507e+07 2.46967e+07 2.48141e+07 2.48432e+07 2.4867e+07 2.5115e+07 2.5647e+07 2.60052e+07 2.60911e+07 2.63508e+07 2.69562e+07 2.77293e+07
          2.29708e+07 2.30356e+07 2.39651e+07 2.47758e+07 2.50068e+07 2.51034e+07 2.51429e+07 2.51925e+07 2.55187e+07 2.60342e+07 2.62858e+07 2.63306e+07
          2.65942e+07 2.73655e+07 2.8273e+07 2.36548e+07 2.37608e+07 2.42527e+07 2.48715e+07 2.52822e+07 2.53667e+07 2.54676e+07 2.58067e+07 2.60617e+07
          2.64463e+07 2.66312e+07 2.66714e+07 2.69528e+07 2.77804e+07 2.85989e+07 2.44132e+07 2.45289e+07 2.47949e+07 2.51995e+07 2.5516e+07 2.55784e+07
          2.57446e+07 2.63643e+07 2.65758e+07 2.68323e+07 2.6989e+07 2.70421e+07 2.72887e+07 2.81275e+07 2.88409e+07 2.51586e+07 2.52296e+07 2.53439e+07
          2.55615e+07 2.57443e+07 2.57843e+07 2.6016e+07 2.69469e+07 2.70826e+07 2.72353e+07 2.73583e+07 2.74295e+07 2.76907e+07 2.84816e+07 2.91006e+07
          2.5723e+07 2.57703e+07 2.57975e+07 2.59481e+07 2.60496e+07 2.60713e+07 2.63552e+07 2.74892e+07 2.7543e+07 2.76726e+07 2.77893e+07 2.7927e+07
          2.81816e+07 2.88376e+07 2.94659e+07 2.61744e+07 2.62234e+07 2.62568e+07 2.64708e+07 2.65743e+07 2.65494e+07 2.69023e+07 2.80405e+07 2.80864e+07
          2.81517e+07 2.82132e+07 2.83934e+07 2.94744e+07 3.02319e+07 2.99441e+07 2.65397e+07 2.65796e+07 2.67948e+07 2.71838e+07 2.73576e+07 2.75688e+07
          2.78008e+07 2.85443e+07 2.85871e+07 2.86195e+07 2.86609e+07 2.96088e+07 3.05543e+07 3.07459e+07 3.05295e+07 2.68553e+07 2.69302e+07 2.73077e+07
          2.77497e+07 2.81875e+07 2.82762e+07 2.86244e+07 2.89068e+07 2.89595e+07 2.90416e+07 2.93603e+07 3.027e+07 3.09634e+07 3.13295e+07 3.10826e+07
          2.7401e+07 2.7417e+07 2.77883e+07 2.84006e+07 2.8768e+07 2.88176e+07 2.89901e+07 2.9148e+07 2.91989e+07 2.92666e+07 2.97437e+07 3.08265e+07
          3.1555e+07 3.19085e+07 3.15881e+07 2.81718e+07 2.82258e+07 2.84406e+07 2.89071e+07 2.9109e+07 2.91565e+07 2.92831e+07 2.93929e+07 2.94466e+07
          2.95079e+07 3.01062e+07 3.12561e+07 3.19994e+07 3.22829e+07 3.20929e+07 2.85111e+07 2.85764e+07 2.87963e+07 2.91884e+07 2.93939e+07 2.94433e+07
          2.9546e+07 2.96351e+07 2.96837e+07 2.97422e+07 3.0403e+07 3.16778e+07 3.24402e+07 3.26453e+07 3.28062e+07 2.87817e+07 2.88411e+07 2.90618e+07
          2.94408e+07 2.96327e+07 2.96823e+07 2.97774e+07 2.98575e+07 2.99065e+07 2.99732e+07 3.06279e+07 3.20349e+07 3.28743e+07 3.30295e+07 3.34839e+07
          2.90045e+07 2.9074e+07 2.92521e+07 2.95999e+07 2.98385e+07 2.98943e+07 2.99941e+07 3.00764e+07 3.0146e+07 3.02341e+07 3.11648e+07 3.26708e+07
          3.32746e+07 3.34401e+07 3.40061e+07 2.92166e+07 2.92895e+07 2.94477e+07 2.97878e+07 3.00311e+07 3.00936e+07 3.02087e+07 3.03022e+07 3.03958e+07
          3.04997e+07 3.17598e+07 3.33245e+07 3.36907e+07 3.38982e+07 3.45143e+07 2.94067e+07 2.94723e+07 2.96663e+07 3.00262e+07 3.02233e+07 3.0297e+07
          3.04331e+07 3.05418e+07 3.06654e+07 3.07979e+07 3.22589e+07 3.38579e+07 3.41692e+07 3.4405e+07 3.48695e+07 2.95771e+07 2.96389e+07 2.98074e+07
          3.01687e+07 3.04253e+07 3.0501e+07 3.0655e+07 3.07823e+07 3.09353e+07 3.11175e+07 3.28143e+07 3.43172e+07 3.46643e+07 3.4875e+07 3.51797e+07
        </DataArray>
        <DataArray type="Float32" Name="pressure[2]" NumberOfComponents="1" format="ascii">
          2.11327e+07 2.11469e+07 2.1862e+07 2.25874e+07 2.29757e+07 2.33768e+07 2.35023e+07 2.35489e+07 2.36065e+07 2.36692e+07 2.38357e+07 2.41118e+07
          2.43171e+07 2.4905e+07 2.56267e+07 2.11796e+07 2.11967e+07 2.19835e+07 2.27443e+07 2.31538e+07 2.35562e+07 2.36482e+07 2.36848e+07 2.37435e+07
          2.3813e+07 2.40413e+07 2.43197e+07 2.44892e+07 2.50983e+07 2.5792e+07 2.128e+07 2.1327e+07 2.20882e+07 2.28958e+07 2.32652e+07 2.36429e+07
          2.37527e+07 2.38046e+07 2.38789e+07 2.39709e+07 2.42754e+07 2.45889e+07 2.47631e+07 2.53352e+07 2.59996e+07 2.14089e+07 2.14554e+07 2.1941e+07
          2.30321e+07 2.34084e+07 2.37773e+07 2.3877e+07 2.39234e+07 2.40307e+07 2.41657e+07 2.4566e+07 2.49394e+07 2.51181e+07 2.56169e+07 2.62567e+07
          2.15406e+07 2.15623e+07 1.98124e+07 2.31335e+07 2.3627e+07 2.40076e+07 2.40715e+07 2.41058e+07 2.42667e+07 2.45047e+07 2.49256e+07 2.52751e+07
          2.54624e+07 2.5935e+07 2.65099e+07 2.17475e+07 2.17903e+07 2.24773e+07 2.37078e+07 2.4028e+07 2.4273e+07 2.43153e+07 2.43502e+07 2.45558e+07
          2.49301e+07 2.53524e+07 2.55782e+07 2.57812e+07 2.62534e+07 2.67934e+07 2.20162e+07 2.20677e+07 2.32443e+07 2.41739e+07 2.43806e+07 2.45449e+07
          2.45848e+07 2.4618e+07 2.48124e+07 2.53243e+07 2.57411e+07 2.58463e+07 2.60406e+07 2.65979e+07 2.71868e+07 2.24053e+07 2.24615e+07 2.36308e+07
          2.4507e+07 2.46967e+07 2.48141e+07 2.48432e+07 2.4867e+07 2.5115e+07 2.5647e+07 2.60052e+07 2.60911e+07 2.63508e+07 2.69562e+07 2.77293e+07
          2.29708e+07 2.30356e+07 2.39651e+07 2.47758e+07 2.50068e+07 2.51034e+07 2.51429e+07 2.51925e+07 2.55187e+07 2.60342e+07 2.62858e+07 2.63306e+07
          2.65942e+07 2.73655e+07 2.8273e+07 2.36548e+07 2.37608e+07 2.42527e+07 2.48715e+07 2.52822e+07 2.53667e+07 2.54676e+07 2.58067e+07 2.60617e+07
          2.64463e+07 2.66312e+07 2.66714e+07 2.69528e+07 2.77804e+07 2.85989e+07 2.44132e+07 2.45289e+07 2.47949e+07 2.51995e+07 2.5516e+07 2.55784e+07
          2.57446e+07 2.63643e+07 2.65758e+07 2.68323e+07 2.6989e+07 2.70421e+07 2.72887e+07 2.81275e+07 2.88409e+07 2.51586e+07 2.52296e+07 2.53439e+07
          2.55615e+07 2.57443e+07 2.57843e+07 2.6016e+07 2.69469e+07 2.70826e+07 2.72353e+07 2.73583e+07 2.74295e+07 2.76907e+07 2.84816e+07 2.91006e+07
          2.5723e+07 2.57703e+07 2.57975e+07 2.59481e+07 2.60496e+07 2.60713e+07 2.63552e+07 2.74892e+07 2.7543e+07 2.76726e+07 2.77893e+07 2.7927e+07
          2.81816e+07 2.88376e+07 2.94659e+07 2.61744e+07 2.62234e+07 2.62568e+07 2.64708e+07 2.65743e+07 2.65494e+07 2.69023e+07 2.80405e+07 2.80864e+07
          2.81517e+07 2.82132e+07 2.83934e+07 2.94744e+07 3.02319e+07 2.99441e+07 2.65397e+07 2.65796e+07 2.67948e+07 2.71838e+07 2.73576e+07 2.75688e+07
          2.78008e+07 2.85443e+07 2.85871e+07 2.86195e+07 2.86609e+07 2.96088e+07 3.05543e+07 3.07459e+07 3.05295e+07 2.68553e+07 2.69302e+07 2.73077e+07
          2.77497e+07 2.81875e+07 2.82762e+07 2.86244e+07 2.89068e+07 2.89595e+07 2.90416e+07 2.93603e+07 3.027e+07 3.09634e+07 3.13295e+07 3.10826e+07
          2.7401e+07 2.7417e+07 2.77883e+07 2.84006e+07 2.8768e+07 2.88176e+07 2.89901e+07 2.9148e+07 2.91989e+07 2.92666e+07 2.97437e+07 3.08265e+07
          3.1555e+07 3.19085e+07 3.15881e+07 2.81718e+07 2.82258e+07 2.84406e+07 2.89071e+07 2.9109e+07 2.91565e+07 2.92831e+07 2.93929e+07 2.94466e+07
          2.95079e+07 3.01062e+07 3.12561e+07 3.19994e+07 3.22829e+07 3.20929e+07 2.85111e+07 2.85764e+07 2.87963e+07 2.91884e+07 2.93939e+07 2.94433e+07
          2.9546e+07 2.96351e+07 2.96837e+07 2.97422e+07 3.0403e+07 3.16778e+07 3.24402e+07 3.26453e+07 3.28062e+07 2.87817e+07 2.88411e+07 2.90618e+07
          2.94408e+07 2.96327e+07 2.96823e+07 2.97774e+07 2.98575e+07 2.99065e+07 2.99732e+07 3.06279e+07 3.20349e+07 3.28743e+07 3.30295e+07 3.34839e+07
          2.90045e+07 2.9074e+07 2.92521e+07 2.95999e+07 2.98385e+07 2.98943e+07 2.99941e+07 3.00764e+07 3.0146e+07 3.02341e+07 3.11648e+07 3.26708e+07
          3.32746e+07 3.34401e+07 3.40061e+07 2.92166e+07 2.92895e+07 2.94477e+07 2.97878e+07 3.00311e+07 3.00936e+07 3.02087e+07 3.03022e+07 3.03958e+07
          3.04997e+07 3.17598e+07 3.33245e+07 3.36907e+07 3.38982e+07 3.45143e+07 2.94067e+07 2.94723e+07 2.96663e+07 3.00262e+07 3.02233e+07 3.0297e+07
          3.04331e+07 3.05418e+07 3.06654e+07 3.07979e+07 3.22589e+07 3.38579e+07 3.41692e+07 3.4405e+07 3.48695e+07 2.95771e+07 2.96389e+07 2.98074e+07
          3.01687e+07 3.04253e+07 3.0501e+07 3.0655e+07 3.07823e+07 3.09353e+07 3.11175e+07 3.28143e+07 3.43172e+07 3.46643e+07 3.4875e+07 3.51797e+07
        </DataArray>
        <DataArray type="Float32" Name="velocity[0]" NumberOfComponents="1" format="ascii">
          -1.13389e-08 5.61812e-08 9.94212e-11 -5.86491e-09 -3.54237e-10 -1.54601e-09 -8.60901e-10 9.30112e-10 1.43877e-09 -4.80619e-10 -1.78561e-09 -2.39607e-09
          -1.668e-09 -5.72839e-10 -2.52736e-09 -2.08679e-08 1.4434e-07 2.31916e-10 -2.34808e-08 -6.84161e-11 1.28638e-09 6.49204e-09 4.51863e-09 2.91905e-09
          -2.62912e-09 -3.72836e-09 -1.02957e-08 -6.36635e-09 -1.68057e-09 -6.69815e-09 -1.6409e-08 1.8419e-07 1.07653e-09 -3.49655e-09 2.4738e-10 3.3999e-09
          1.04517e-08 7.46116e-09 3.97387e-10 -6.28599e-09 -4.35258e-09 -2.57172e-08 -9.09667e-09 -3.53555e-09 -1.00419e-08 -1.19797e-08 1.9665e-07 7.78557e-09
          8.1915e-08 -2.34522e-09 -1.29645e-08 -1.3679e-08 -7.14312e-09 -5.42444e-09 -1.30241e-08 -5.48417e-09 -4.36607e-08 -6.44646e-09 -5.18959e-09 -1.37298e-08
          -9.66574e-08 -3.29444e-08 -3.16914e-10 -1.44184e-07 -1.69086e-08 -6.84976e-08 -7.80526e-08 -6.30578e-08 -7.35902e-09 -1.29914e-08 -7.68204e-09 -7.30398e-08
          -3.20238e-09 -4.74414e-09 -1.69633e-08 -1.92704e-07 -2.42115e-07 -8.83665e-09 -2.94505e-07 -3.57321e-08 -2.01768e-07 -1.14022e-07 -1.67313e-07 -4.67414e-09
          -5.62191e-09 -1.14044e-08 -1.05343e-07 -1.85068e-09 -3.76607e-09 -1.91639e-08 -1.92841e-07 -2.08638e-07 -2.57055e-09 -9.5697e-08 -3.35847e-08 -3.5056e-07
          -9.12444e-08 -2.82145e-07 -3.43412e-09 -2.36072e-09 -1.38458e-08 -1.27323e-07 -1.63384e-09 -3.73143e-09 -2.07095e-08 -1.73863e-07 -1.89025e-07 -1.9969e-09
          -1.58188e-08 -2.09269e-08 -4.43139e-07 -5.70952e-08 -3.20607e-07 -3.66099e-09 -1.98908e-09 -1.58553e-08 -1.43693e-07 -1.37306e-09 -3.88058e-09 -2.2466e-08
          -1.55393e-07 -1.68311e-07 -2.40275e-09 -2.27023e-09 -1.50277e-08 -4.90239e-07 -2.55534e-08 -3.17791e-07 -3.94705e-09 -2.50237e-09 -2.76581e-08 -1.41293e-07
          -1.31449e-09 -3.53406e-09 -2.47837e-08 -1.25978e-07 -1.54881e-07 -8.86119e-09 -4.79339e-10 -1.15561e-08 -4.87984e-07 -8.9526e-09 -3.72662e-07 -4.54974e-09
          -2.93018e-09 -4.80386e-08 -1.22611e-07 -2.16487e-09 -2.98445e-09 -2.71136e-08 -9.2541e-08 -1.47423e-07 -1.99226e-08 -1.39897e-09 -1.10738e-08 -4.60767e-07
          -3.00741e-09 -4.35906e-07 -1.02563e-08 -4.25281e-09 -6.16769e-08 -1.02594e-07 -5.85277e-09 -3.3793e-09 -2.92519e-08 -7.38815e-08 -1.40604e-07 -2.74429e-08
          -1.13481e-09 -1.80393e-08 -4.28905e-07 -2.32071e-09 -3.94417e-07 -4.43441e-08 -8.34366e-09 -6.5734e-08 -7.70274e-08 -1.9855e-08 -5.99706e-09 -3.16646e-08
          -6.80954e-08 -1.43711e-07 -2.44524e-08 -2.40309e-09 -3.40446e-08 -3.61807e-07 -3.9069e-09 -3.43658e-07 -8.43711e-08 -1.82495e-08 -5.91152e-08 -3.88006e-08
          -3.31656e-08 -1.69336e-08 -3.53211e-08 -6.71534e-08 -1.53376e-07 -1.45658e-08 -6.13623e-09 -7.01836e-08 -2.63309e-07 -6.81457e-09 -3.70166e-07 -8.93941e-08
          -3.94106e-08 -4.77762e-08 -1.1554e-08 -3.55961e-08 -3.41563e-08 -3.62767e-08 -7.09162e-08 -1.42321e-07 -8.74634e-09 -9.28279e-09 -7.35001e-08 -2.37228e-07
          -5.58428e-09 -4.05141e-07 -9.3717e-08 -4.38089e-08 -3.32113e-08 -6.42905e-09 -3.62835e-08 -5.05663e-08 -3.27414e-08 -5.65544e-08 -1.36696e-07 -7.597e-09
          -1.26738e-08 -4.95494e-08 -2.64309e-07 -3.09073e-09 -3.84132e-07 -1.07073e-07 -3.53482e-08 -1.39872e-08 -7.4623e-09 -4.24584e-08 -7.34513e-08 -2.76179e-08
          -5.3093e-08 -1.01091e-07 -1.00154e-08 -1.45828e-08 -6.58889e-08 -2.40525e-07 -4.19732e-09 -3.16372e-07 -1.11295e-07 -5.16041e-08 -4.50016e-09 -6.17868e-09
          -3.50854e-08 -1.08757e-07 -2.19738e-08 -6.79403e-08 -4.76169e-08 -8.61703e-09 -8.44095e-09 -9.91654e-08 -1.76662e-07 -5.8217e-09 -2.51984e-07 -1.25792e-07
          -8.2543e-08 -2.98015e-09 -4.04046e-09 -2.27e-08 -1.42037e-07 -1.71816e-08 -6.30733e-08 -3.16862e-08 -4.36565e-09 -2.52795e-09 -1.19224e-07 -1.11968e-07
          -6.12588e-09 -1.88243e-07 -1.30502e-07 -1.35798e-07 -1.71852e-09 -3.31312e-09 -2.96639e-08 -1.62351e-07 -1.50724e-08 -5.37495e-08 -2.19528e-08 -2.29571e-09
          -9.56864e-10 -1.23115e-07 -6.2283e-08 -5.05539e-09 -1.40223e-07 -8.63676e-08 -2.42499e-07 -3.08124e-09 -4.73502e-09 -4.40992e-08 -1.72251e-07 -1.62558e-08
          -4.15095e-08 -1.47166e-08 -1.74046e-09 -2.47849e-10 -1.12129e-07 -3.18013e-08 -4.28394e-09 -1.11541e-07 -3.6753e-08 -3.40637e-07 -4.87105e-09 -8.74302e-09
          -5.3622e-08 -1.80108e-07 -1.87117e-08 -2.61977e-08 -7.52365e-09 -2.5481e-09 -9.88068e-10 -8.18188e-08 -2.12763e-08 -4.19713e-09 -1.07325e-07 -2.01785e-08
          -3.6208e-07 -4.44694e-09 -1.67862e-08 -5.87151e-08 -1.8811e-07 -2.32484e-08 -1.22479e-08 -3.01132e-09 -1.13882e-09 -6.49651e-10 -4.05086e-08 -1.57782e-08
          -3.46215e-09 -1.14719e-07 -1.63853e-08 -3.12927e-07 -6.17352e-09 -2.89376e-08 -7.7123e-08 -1.96107e-07 -3.03836e-08 -3.24616e-09 -6.7756e-10 2.47762e-10
          9.00803e-11 -9.49677e-09 -6.00335e-09 -1.27055e-09 -5.87276e-08 -7.65167e-09 -1.35479e-07 -4.07447e-09 -1.75568e-08 -4.60865e-08 -1.00822e-07 -1.70658e-08
        </DataArray>
        <DataArray type="Float32" Name="velocity[1]" NumberOfComponents="1" format="ascii">
          1.76219e-24 8.90892e-24 1.31795e-25 -9.11476e-25 5.50525e-26 0 1.33794e-25 -9.12682e-26 7.989e-26 5.3219e-24 -3.49504e-24 5.95399e-26
          2.26009e-24 -8.76193e-25 3.92391e-25 -2.81267e-25 4.81081e-24 1.29504e-25 -1.82624e-24 -2.02799e-25 7.41971e-24 9.8103e-25 2.01599e-25 -6.98735e-24
          -1.85465e-25 0 -5.79876e-26 6.0153e-26 3.83774e-28 2.55409e-25 -4.11703e-25 -1.0363e-23 -1.92574e-24 4.93202e-24 -2.07837e-25 0
          5.56615e-25 -1.03267e-25 -3.98347e-25 0 6.51716e-24 -1.01009e-23 0 1.05862e-24 -2.6506e-25 -5.03811e-25 1.39186e-23 -1.72812e-24
          -8.11875e-24 5.42386e-25 1.08681e-23 -1.98873e-23 2.52902e-23 -3.36928e-24 1.07401e-24 3.10137e-24 -4.16368e-24 2.94247e-24 -1.23717e-24 9.27085e-25
          -1.27474e-25 -7.27892e-23 6.76886e-24 1.25187e-23 -5.1521e-25 -6.82047e-24 1.83565e-25 -1.26706e-25 -7.41502e-28 -5.59639e-24 3.70122e-24 -6.6379e-24
          -3.08006e-28 1.20841e-25 -1.41495e-24 -1.68751e-25 7.77401e-24 -7.32129e-25 9.20781e-24 2.30535e-25 -1.48169e-23 0 -1.85577e-25 1.89336e-26
          4.01397e-25 -3.41575e-25 4.96995e-24 -1.40572e-24 8.315e-25 1.41414e-24 -1.28149e-24 1.58271e-24 0 1.11721e-23 -1.18365e-24 -2.48327e-23
          -1.84235e-25 -1.8083e-25 -2.61005e-24 5.90259e-28 -1.96805e-28 -4.72612e-28 3.76152e-26 -2.07859e-28 -1.56334e-24 -2.15084e-25 1.38674e-23 1.66931e-24
          3.14273e-24 -1.1096e-25 2.61364e-23 -2.43556e-27 -9.77516e-27 -3.47962e-26 -4.74048e-26 -3.29663e-24 -1.06646e-23 -1.52003e-28 -3.61153e-25 1.83631e-24
          -1.60821e-24 -9.58785e-24 -1.04216e-25 -2.15538e-24 -2.90724e-25 1.71889e-24 0 0 -1.13309e-24 -2.35572e-28 1.11085e-24 2.40589e-24
          -1.94334e-28 5.12256e-26 -3.23343e-28 -1.138e-23 8.7573e-25 1.45544e-24 -1.90511e-25 -2.42489e-24 4.90501e-24 -9.34969e-24 6.92509e-24 1.01191e-24
          -3.33877e-26 -9.38198e-25 2.69593e-24 -8.32212e-25 0 -2.01537e-24 4.37505e-24 9.38631e-26 7.45458e-25 -1.31134e-25 1.82566e-24 1.98309e-27
          -6.95043e-24 5.81656e-24 8.20288e-25 1.71638e-25 7.51925e-25 7.01575e-24 2.00541e-24 -2.99056e-25 1.49528e-25 -5.29854e-24 9.99238e-25 -4.26246e-25
          -1.59223e-26 4.06168e-26 -3.18982e-23 4.66405e-26 -9.35146e-24 -3.84241e-24 -4.63569e-25 -1.45204e-24 3.97191e-24 -1.90852e-24 1.07355e-24 -2.25872e-25
          5.28423e-24 1.06757e-23 0 -1.89408e-25 1.57098e-24 7.578e-24 1.97834e-25 1.46696e-24 -1.74418e-24 3.82396e-28 -4.02115e-24 -1.32607e-24
          4.01706e-25 -6.22127e-25 -1.39308e-27 -1.32124e-25 2.16383e-28 4.51059e-25 -7.84029e-25 5.25563e-27 2.85254e-23 2.58186e-25 2.65559e-24 9.85677e-24
          -3.64772e-24 4.02075e-24 3.3217e-24 -4.99783e-24 4.63967e-28 -2.7206e-24 -5.15224e-24 -9.94096e-24 7.58361e-28 6.72205e-25 -3.5295e-24 -1.99622e-27
          -4.43214e-25 1.43739e-24 5.97688e-25 0 0 4.69561e-25 4.25507e-24 -5.48063e-25 5.08963e-24 0 -1.36221e-24 0
          -1.19921e-24 -1.88495e-25 -1.67453e-27 5.56863e-26 -6.04598e-24 2.23158e-27 1.63528e-27 1.21662e-27 4.8433e-24 8.16721e-28 -1.41156e-24 -2.36552e-24
          -1.53192e-28 6.89567e-24 -1.52247e-28 1.28572e-25 2.73414e-24 -1.19395e-23 0 -1.24905e-23 0 -1.28286e-27 3.45831e-24 -4.28209e-24
          -1.97326e-24 -1.08035e-28 1.48943e-24 0 4.40749e-24 0 1.06783e-24 3.07215e-24 4.9727e-24 1.33559e-25 -5.52239e-24 -5.44282e-24
          -2.49656e-24 2.05919e-25 6.59422e-26 4.44877e-28 -1.97854e-24 -1.18079e-24 4.57471e-24 -1.93571e-24 2.37763e-24 -2.19222e-24 6.79643e-25 1.08765e-23
          -8.63157e-26 -4.3836e-24 1.07921e-23 6.19759e-24 -3.73472e-24 8.02127e-26 1.03345e-24 -1.9428e-28 1.16164e-24 8.05583e-28 -4.05651e-24 8.72892e-25
          -1.97277e-24 -1.48271e-25 -3.37471e-24 -1.57484e-25 -6.15719e-24 -5.56222e-24 1.08021e-23 3.04649e-25 3.98964e-24 1.21053e-24 -4.05737e-25 -9.58568e-25
          -1.10612e-24 6.73987e-25 0 -3.65451e-26 -1.63409e-24 5.33898e-24 -9.3832e-24 9.38872e-24 -6.56429e-24 -3.5297e-29 0 0
          2.69563e-25 -5.83845e-28 1.54332e-24 -1.2735e-24 -1.33869e-24 1.23703e-24 -2.08783e-24 -1.19066e-24 -1.51673e-24 2.42856e-26 7.23216e-25 -4.29159e-24
          1.52547e-23 -2.87605e-25 -7.26627e-24 5.21712e-25 1.05364e-24 2.81522e-28 -8.93487e-25 -1.04242e-27 -1.29266e-27 1.24692e-25 -3.3455e-24 5.88436e-25
          -1.43141e-25 1.16657e-23 -4.82742e-24 0 -3.07003e-25 -9.59589e-25 7.40436e-24 -8.61222e-25 0 -5.05515e-25 -1.07403e-27 -4.14338e-25
          7.0192e-25 -1.47406e-24 -2.44553e-24 -3.99344e-25 -3.01548e-24 1.18916e-24 -3.29939e-23 0 3.29755e-23 -2.41583e-23 1.99401e-23 5.01486e-25
        </DataArray>
        <DataArray type="Float32" Name="velocity[2]" NumberOfComponents="1" format="ascii">
          -1.22497e-09 8.70362e-09 -3.87247e-09 -4.5165e-09 -3.14094e-09 -3.18487e-09 -2.91852e-09 -2.57799e-09 -2.55944e-09 -2.91149e-09 -2.95474e-09 -2.75067e-09
          -2.31404e-09 -1.88351e-09 -1.28895e-09 -3.77883e-09 2.3706e-08 -3.18352e-09 -6.65947e-09 -1.89373e-09 -1.82733e-09 -1.28535e-09 -1.89727e-09 -2.21308e-09
          -3.07276e-09 -3.13537e-09 -3.90017e-09 -2.62687e-09 -1.48323e-09 -1.72977e-09 -3.04729e-09 3.17881e-08 -9.07736e-10 -3.27e-09 -4.08044e-09 -3.32368e-09
          -1.80957e-09 -2.20296e-09 -3.26e-09 -4.14561e-09 -3.63688e-09 -6.72608e-09 -3.17911e-09 -1.97911e-09 -2.33836e-09 -2.20946e-09 3.42467e-08 2.69631e-10
          1.02647e-08 -7.03492e-09 -8.03121e-09 -6.90608e-09 -4.79183e-09 -3.84764e-09 -4.73744e-09 -3.12268e-09 -9.30485e-09 -2.41887e-09 -2.29776e-09 -3.08395e-09
          -1.12254e-08 1.342e-09 -1.16527e-09 -3.43361e-08 -1.51767e-08 -2.15386e-08 -2.00146e-08 -1.50366e-08 -4.13887e-09 -5.33712e-09 -4.46905e-09 -1.4615e-08
          -1.07829e-09 -1.5392e-09 -3.40731e-09 -3.32685e-08 -4.24538e-08 -2.9139e-09 -6.00366e-08 -2.03181e-08 -4.4801e-08 -2.51554e-08 -3.30289e-08 -2.67675e-09
          -2.99167e-09 -3.97584e-09 -1.97444e-08 -8.68494e-10 -1.26951e-09 -3.69836e-09 -3.4554e-08 -3.82267e-08 -2.2397e-09 -2.20776e-08 -1.49356e-08 -6.84845e-08
          -2.03563e-08 -5.29597e-08 -2.3989e-09 -2.22869e-09 -4.2646e-09 -2.35963e-08 -7.55098e-10 -1.08128e-09 -3.84965e-09 -3.12007e-08 -3.4873e-08 -2.28182e-09
          -5.13607e-09 -6.69597e-09 -7.96559e-08 -1.04492e-08 -5.7794e-08 -2.248e-09 -1.93427e-09 -4.25581e-09 -2.63659e-08 -9.82927e-10 -1.46074e-09 -4.35087e-09
          -2.78985e-08 -3.10598e-08 -2.13333e-09 -2.1779e-09 -4.65286e-09 -8.7996e-08 -5.84592e-09 -5.74022e-08 -1.78559e-09 -1.51211e-09 -5.3024e-09 -2.51642e-08
          -9.20606e-10 -1.33744e-09 -4.7541e-09 -2.35036e-08 -2.99943e-08 -3.7682e-09 -1.64577e-09 -3.6195e-09 -8.83523e-08 -4.65517e-09 -6.77331e-08 -1.60923e-09
          -1.28995e-09 -8.5809e-09 -2.17323e-08 -1.12288e-09 -1.27646e-09 -5.17425e-09 -1.71529e-08 -2.78149e-08 -5.05128e-09 -1.36947e-09 -3.03314e-09 -8.29005e-08
          -2.83715e-09 -7.86986e-08 -2.82658e-09 -1.40694e-09 -1.12793e-08 -1.88295e-08 -2.09651e-09 -1.33949e-09 -5.4788e-09 -1.34071e-08 -2.57125e-08 -5.68228e-09
          -8.03858e-10 -3.46758e-09 -7.64591e-08 -2.08676e-09 -7.28228e-08 -1.09696e-08 -2.774e-09 -1.27268e-08 -1.566e-08 -5.85318e-09 -2.36059e-09 -6.06798e-09
          -1.20136e-08 -2.50365e-08 -4.18589e-09 -7.32225e-10 -5.71131e-09 -6.524e-08 -4.36859e-09 -6.39917e-08 -1.73456e-08 -4.73594e-09 -1.21322e-08 -1.03214e-08
          -1.0459e-08 -5.93493e-09 -6.95653e-09 -1.18959e-08 -2.69869e-08 -2.70973e-09 -1.46065e-09 -1.12401e-08 -4.62245e-08 -3.28611e-09 -6.68472e-08 -1.72641e-08
          -8.2557e-09 -9.41327e-09 -3.61002e-09 -8.19023e-09 -6.56574e-09 -5.97751e-09 -1.21974e-08 -2.52005e-08 -2.50938e-09 -2.71634e-09 -1.52212e-08 -4.41988e-08
          -2.32407e-09 -7.23788e-08 -1.63563e-08 -7.31953e-09 -6.51702e-09 -2.44374e-09 -7.62938e-09 -8.73907e-09 -5.00891e-09 -1.12374e-08 -2.61955e-08 -2.94963e-09
          -3.66439e-09 -1.00961e-08 -4.78746e-08 -1.64661e-09 -6.98655e-08 -2.18794e-08 -9.008e-09 -5.73333e-09 -5.09104e-09 -1.0866e-08 -1.35147e-08 -3.9217e-09
          -8.32791e-09 -1.79759e-08 -3.96821e-09 -4.65066e-09 -1.28044e-08 -4.39302e-08 -3.50683e-09 -5.93038e-08 -2.38288e-08 -1.26299e-08 -3.78741e-09 -4.25421e-09
          -1.03143e-08 -2.07274e-08 -2.93727e-09 -1.20247e-08 -8.94103e-09 -2.808e-09 -3.33097e-09 -1.87516e-08 -3.32881e-08 -4.86475e-09 -4.91797e-08 -2.7099e-08
          -1.80456e-08 -3.4159e-09 -3.65776e-09 -6.93988e-09 -2.58402e-08 -2.36597e-09 -1.14002e-08 -6.48869e-09 -2.09615e-09 -1.88516e-09 -2.2262e-08 -2.20579e-08
          -4.71753e-09 -3.75989e-08 -2.86733e-08 -2.86234e-08 -3.53179e-09 -3.88267e-09 -8.1174e-09 -2.98074e-08 -2.61543e-09 -9.81788e-09 -4.69928e-09 -1.47769e-09
          -1.38954e-09 -2.30044e-08 -1.33161e-08 -4.25131e-09 -2.86279e-08 -2.18057e-08 -4.87024e-08 -3.58058e-09 -3.63175e-09 -9.93759e-09 -3.16295e-08 -3.30116e-09
          -7.79437e-09 -3.76192e-09 -1.64118e-09 -1.31644e-09 -2.15944e-08 -8.40266e-09 -3.96944e-09 -2.31268e-08 -1.10085e-08 -6.42809e-08 -3.94035e-09 -4.5104e-09
          -1.21844e-08 -3.34484e-08 -3.68209e-09 -5.16623e-09 -2.56321e-09 -1.81019e-09 -1.49241e-09 -1.6778e-08 -7.23998e-09 -4.30509e-09 -2.23614e-08 -7.0338e-09
          -6.77731e-08 -5.01335e-09 -6.8464e-09 -1.36575e-08 -3.58391e-08 -5.22838e-09 -2.54383e-09 -1.3824e-09 -1.27772e-09 -1.37601e-09 -9.59473e-09 -6.55872e-09
          -4.58863e-09 -2.4159e-08 -6.8122e-09 -6.08464e-08 -8.30832e-09 -1.18262e-08 -1.89487e-08 -3.80025e-08 -6.60696e-09 -7.89256e-10 -5.87399e-10 -4.37714e-10
          -4.40948e-10 -2.63473e-09 -2.80671e-09 -2.28729e-09 -1.40193e-08 -7.03908e-09 -3.54564e-08 -1.52128e-08 -1.33165e-08 -1.51729e-08 -2.11441e-08 -3.54707e-09
        </DataArray>
        <DataArray type="Float32" Name="z[0]" NumberOfComponents="1" format="ascii">
          0.150578 0.150579 0.15058 0.150582 0.150582 0.150583 0.150584 0.150585 0.150585 0.150586 0.150587 0.150588
          0.150589 0.150591 0.150596 0.150581 0.150582 0.150583 0.150585 0.150586 0.150587 0.150587 0.150588 0.150588
          0.150589 0.15059 0.150591 0.150593 0.150595 0.150599 0.150584 0.150585 0.150587 0.150588 0.150589 0.15059
          0.15059 0.150591 0.150592 0.150593 0.150593 0.150595 0.150596 0.150598 0.150602 0.150588 0.150589 0.15059
          0.150591 0.150592 0.150593 0.150594 0.150594 0.150595 0.150596 0.150597 0.150598 0.150599 0.150601 0.150605
          0.150591 0.150592 0.150593 0.150594 0.150595 0.150596 0.150597 0.150597 0.150598 0.150599 0.1506 0.150601
          0.150602 0.150604 0.150609 0.150594 0.150595 0.150596 0.150597 0.150598 0.150599 0.1506 0.1506 0.150601
          0.150602 0.150603 0.150604 0.150605 0.150607 0.150612 0.150597 0.150598 0.150599 0.150601 0.150601 0.150602