<?xml version="1.0"?>
<VTKFile type="UnstructuredGrid" version="0.1" byte_order="LittleEndian">
  <UnstructuredGrid>
    <Piece NumberOfCells="360" NumberOfPoints="800">
      <CellData Scalars="pressure[0]">
        <DataArray type="Float32" Name="pressure[0]" NumberOfComponents="1" format="ascii">
          2.08073e+07 2.08217e+07 2.14098e+07 2.21081e+07 2.24332e+07 2.28691e+07 2.30197e+07 2.30736e+07 2.31381e+07 2.32067e+07 2.34145e+07 2.37779e+07
          2.40549e+07 2.47211e+07 2.55289e+07 2.08509e+07 2.08654e+07 2.1529e+07 2.23103e+07 2.26227e+07 2.30705e+07 2.31806e+07 2.32212e+07 2.32867e+07
          2.33647e+07 2.36679e+07 2.40419e+07 2.42555e+07 2.49418e+07 2.5698e+07 2.08946e+07 2.0909e+07 2.15627e+07 2.24792e+07 2.27783e+07 2.31841e+07
          2.33104e+07 2.33691e+07 2.34523e+07 2.3563e+07 2.3985e+07 2.44233e+07 2.46074e+07 2.52188e+07 2.59158e+07 2.09387e+07 2.09536e+07 2.14478e+07
          2.26267e+07 2.29465e+07 2.33623e+07 2.34883e+07 2.35464e+07 2.36843e+07 2.38657e+07 2.442e+07 2.48738e+07 2.50394e+07 2.55367e+07 2.6188e+07
          2.10269e+07 2.10528e+07 1.97318e+07 2.27667e+07 2.32962e+07 2.39557e+07 2.40425e+07 2.40846e+07 2.42045e+07 2.44996e+07 2.49321e+07 2.53101e+07
          2.54598e+07 2.58878e+07 2.6453e+07 2.12172e+07 2.12599e+07 2.14036e+07 2.3498e+07 2.40254e+07 2.45228e+07 2.4581e+07 2.46346e+07 2.47768e+07
          2.51705e+07 2.54822e+07 2.56708e+07 2.5836e+07 2.62413e+07 2.67491e+07 2.14592e+07 2.15082e+07 2.21587e+07 2.4232e+07 2.46999e+07 2.51041e+07
          2.5171e+07 2.52447e+07 2.5338e+07 2.56349e+07 2.58906e+07 2.59713e+07 2.61354e+07 2.66183e+07 2.71608e+07 2.1804e+07 2.1859e+07 2.31153e+07
          2.44272e+07 2.51847e+07 2.56013e+07 2.56568e+07 2.57077e+07 2.58001e+07 2.60123e+07 2.61676e+07 2.62296e+07 2.64589e+07 2.70017e+07 2.77286e+07
          2.22961e+07 2.23602e+07 2.35202e+07 2.45846e+07 2.5736e+07 2.60617e+07 2.61604e+07 2.62541e+07 2.62957e+07 2.63849e+07 2.64468e+07 2.64726e+07
          2.67153e+07 2.7431e+07 2.82922e+07 2.28874e+07 2.29864e+07 2.37144e+07 2.44417e+07 2.62399e+07 2.64717e+07 2.66918e+07 2.68925e+07 2.67985e+07
          2.67716e+07 2.67784e+07 2.68035e+07 2.70676e+07 2.78703e+07 2.86255e+07 2.37608e+07 2.38506e+07 2.43584e+07 2.48625e+07 2.66031e+07 2.67767e+07
          2.7129e+07 2.74304e+07 2.72665e+07 2.71755e+07 2.71222e+07 2.71353e+07 2.73662e+07 2.82654e+07 2.88834e+07 2.45577e+07 2.49434e+07 2.5151e+07
          2.55298e+07 2.69682e+07 2.70762e+07 2.75767e+07 2.79818e+07 2.80241e+07 2.76099e+07 2.75651e+07 2.77368e+07 2.826e+07 2.87638e+07 2.96545e+07
          2.58373e+07 2.58923e+07 2.59035e+07 2.62442e+07 2.74712e+07 2.758e+07 2.81182e+07 2.8589e+07 2.86862e+07 2.86655e+07 2.86164e+07 2.88489e+07
          2.93689e+07 3.019e+07 3.03392e+07 2.67908e+07 2.68274e+07 2.66515e+07 2.714e+07 2.82888e+07 2.83931e+07 2.88405e+07 2.91938e+07 2.92632e+07
          2.93434e+07 2.94116e+07 2.9877e+07 3.05074e+07 3.09985e+07 3.07629e+07 2.75351e+07 2.75336e+07 2.75659e+07 2.86384e+07 2.90957e+07 2.91568e+07
          2.94547e+07 2.96685e+07 2.97193e+07 2.97985e+07 2.99514e+07 3.06826e+07 3.12508e+07 3.14215e+07 3.12656e+07 2.81956e+07 2.82191e+07 2.83136e+07
          2.93463e+07 2.95747e+07 2.96288e+07 2.98395e+07 2.99783e+07 3.00271e+07 3.00998e+07 3.03849e+07 3.10851e+07 3.16061e+07 3.19049e+07 3.17388e+07
          2.88784e+07 2.89292e+07 2.9308e+07 2.98485e+07 2.99658e+07 3.00041e+07 3.01141e+07 3.02109e+07 3.02585e+07 3.0321e+07 3.06979e+07 3.15318e+07
          3.2094e+07 3.23864e+07 3.21714e+07 2.94305e+07 2.94901e+07 2.98495e+07 3.01219e+07 3.02416e+07 3.02857e+07 3.03719e+07 3.04445e+07 3.0494e+07
          3.05513e+07 3.10145e+07 3.18964e+07 3.24713e+07 3.27109e+07 3.26017e+07 2.97377e+07 2.98036e+07 3.00168e+07 3.03241e+07 3.04834e+07 3.05309e+07
          3.06071e+07 3.06715e+07 3.07172e+07 3.07724e+07 3.12819e+07 3.2257e+07 3.2846e+07 3.30262e+07 3.31924e+07 2.99849e+07 3.00433e+07 3.02347e+07
          3.05403e+07 3.06973e+07 3.07454e+07 3.08196e+07 3.08809e+07 3.09269e+07 3.09882e+07 3.14933e+07 3.25684e+07 3.32155e+07 3.3358e+07 3.3754e+07
          3.01935e+07 3.02594e+07 3.04122e+07 3.0695e+07 3.08895e+07 3.09422e+07 3.10223e+07 3.10873e+07 3.11486e+07 3.12257e+07 3.19396e+07 3.309e+07
          3.35594e+07 3.371e+07 3.41931e+07 3.03936e+07 3.0462e+07 3.05984e+07 3.08747e+07 3.10728e+07 3.11307e+07 3.12236e+07 3.12982e+07 3.13775e+07
          3.14662e+07 3.24298e+07 3.36255e+07 3.39157e+07 3.4098e+07 3.46209e+07 3.05766e+07 3.06393e+07 3.0803e+07 3.10939e+07 3.12562e+07 3.13225e+07
          3.14319e+07 3.15187e+07 3.16208e+07 3.17312e+07 3.28474e+07 3.40701e+07 3.43193e+07 3.4523e+07 3.49305e+07 3.07445e+07 3.08042e+07 3.09481e+07
          3.12397e+07 3.1447e+07 3.1515e+07 3.16382e+07 3.17393e+07 3.18639e+07 3.20122e+07 3.33074e+07 3.44581e+07 3.47346e+07 3.49196e+07 3.52054e+07
        </DataArray>
        <DataArray type="Float32" Name="pressure[1]" NumberOfComponents="1" format="ascii">
          2.08073e+07 2.08217e+07 2.14098e+07 2.21081e+07 2.24332e+07 2.28691e+07 2.30197e+07 2.30736e+07 2.31381e+07 2.32067e+07 2.34145e+07 2.37779e+07
          2.40549e+07 2.47211e+07 2.55289e+07 2.08509e+07 2.08654e+07 2.1529e+07 2.23103e+07 2.26227e+07 2.30705e+07 2.31806e+07 2.32212e+07 2.32867e+07
          2.33647e+07 2.36679e+07 2.40419e+07 2.42555e+07 2.49418e+07 2.5698e+07 2.08946e+07 2.0909e+07 2.15627e+07 2.24792e+07 2.27783e+07 2.31841e+07
          2.33104e+07 2.33691e+07 2.34523e+07 2.3563e+07 2.3985e+07 2.44233e+07 2.46074e+07 2.52188e+07 2.59158e+07 2.09387e+07 2.09536e+07 2.14478e+07
          2.26267e+07 2.29465e+07 2.33623e+07 2.34883e+07 2.35464e+07 2.36843e+07 2.38657e+07 2.442e+07 2.48738e+07 2.50394e+07 2.55367e+07 2.6188e+07
          2.10269e+07 2.10528e+07 1.97318e+07 2.27667e+07 2.32962e+07 2.39557e+07 2.40425e+07 2.40846e+07 2.42045e+07 2.44996e+07 2.49321e+07 2.53101e+07
          2.54598e+07 2.58878e+07 2.6453e+07 2.12172e+07 2.12599e+07 2.14036e+07 2.3498e+07 2.40254e+07 2.45228e+07 2.4581e+07 2.46346e+07 2.47768e+07
          2.51705e+07 2.54822e+07 2.56708e+07 2.5836e+07 2.62413e+07 2.67491e+07 2.14592e+07 2.15082e+07 2.21587e+07 2.4232e+07 2.46999e+07 2.51041e+07
          2.5171e+07 2.52447e+07 2.5338e+07 2.56349e+07 2.58906e+07 2.59713e+07 2.61354e+07 2.66183e+07 2.71608e+07 2.1804e+07 2.1859e+07 2.31153e+07
          2.44272e+07 2.51847e+07 2.56013e+07 2.56568e+07 2.57077e+07 2.58001e+07 2.60123e+07 2.61676e+07 2.62296e+07 2.64589e+07 2.70017e+07 2.77286e+07
          2.22961e+07 2.23602e+07 2.35202e+07 2.45846e+07 2.5736e+07 2.60617e+07 2.61604e+07 2.62541e+07 2.62957e+07 2.63849e+07 2.64468e+07 2.64726e+07
          2.67153e+07 2.7431e+07 2.82922e+07 2.28874e+07 2.29864e+07 2.37144e+07 2.44417e+07 2.62399e+07 2.64717e+07 2.66918e+07 2.68925e+07 2.67985e+07
          2.67716e+07 2.67784e+07 2.68035e+07 2.70676e+07 2.78703e+07 2.86255e+07 2.37608e+07 2.38506e+07 2.43584e+07 2.48625e+07 2.66031e+07 2.67767e+07
          2.7129e+07 2.74304e+07 2.72665e+07 2.71755e+07 2.71222e+07 2.71353e+07 2.73662e+07 2.82654e+07 2.88834e+07 2.45577e+07 2.49434e+07 2.5151e+07
          2.55298e+07 2.69682e+07 2.70762e+07 2.75767e+07 2.79818e+07 2.80241e+07 2.76099e+07 2.75651e+07 2.77368e+07 2.826e+07 2.87638e+07 2.96545e+07
          2.58373e+07 2.58923e+07 2.59035e+07 2.62442e+07 2.74712e+07 2.758e+07 2.81182e+07 2.8589e+07 2.86862e+07 2.86655e+07 2.86164e+07 2.88489e+07
          2.93689e+07 3.019e+07 3.03392e+07 2.67908e+07 2.68274e+07 2.66515e+07 2.714e+07 2.82888e+07 2.83931e+07 2.88405e+07 2.91938e+07 2.92632e+07
          2.93434e+07 2.94116e+07 2.9877e+07 3.05074e+07 3.09985e+07 3.07629e+07 2.75351e+07 2.75336e+07 2.75659e+07 2.86384e+07 2.90957e+07 2.91568e+07
          2.94547e+07 2.96685e+07 2.97193e+07 2.97985e+07 2.99514e+07 3.06826e+07 3.12508e+07 3.14215e+07 3.12656e+07 2.81956e+07 2.82191e+07 2.83136e+07
          2.93463e+07 2.95747e+07 2.96288e+07 2.98395e+07 2.99783e+07 3.00271e+07 3.00998e+07 3.03849e+07 3.10851e+07 3.16061e+07 3.19049e+07 3.17388e+07
          2.88784e+07 2.89292e+07 2.9308e+07 2.98485e+07 2.99658e+07 3.00041e+07 3.01141e+07 3.02109e+07 3.02585e+07 3.0321e+07 3.06979e+07 3.15318e+07
          3.2094e+07 3.23864e+07 3.21714e+07 2.94305e+07 2.94901e+07 2.98495e+07 3.01219e+07 3.02416e+07 3.02857e+07 3.03719e+07 3.04445e+07 3.0494e+07
          3.05513e+07 3.10145e+07 3.18964e+07 3.24713e+07 3.27109e+07 3.26017e+07 2.97377e+07 2.98036e+07 3.00168e+07 3.03241e+07 3.04834e+07 3.05309e+07
          3.06071e+07 3.06715e+07 3.07172e+07 3.07724e+07 3.12819e+07 3.2257e+07 3.2846e+07 3.30262e+07 3.31924e+07 2.99849e+07 3.00433e+07 3.02347e+07
          3.05403e+07 3.06973e+07 3.07454e+07 3.08196e+07 3.08809e+07 3.09269e+07 3.09882e+07 3.14933e+07 3.25684e+07 3.32155e+07 3.3358e+07 3.3754e+07
          3.01935e+07 3.02594e+07 3.04122e+07 3.0695e+07 3.08895e+07 3.09422e+07 3.10223e+07 3.10873e+07 3.11486e+07 3.12257e+07 3.19396e+07 3.309e+07
          3.35594e+07 3.371e+07 3.41931e+07 3.03936e+07 3.0462e+07 3.05984e+07 3.08747e+07 3.10728e+07 3.11307e+07 3.12236e+07 3.12982e+07 3.13775e+07
          3.14662e+07 3.24298e+07 3.36255e+07 3.39157e+07 3.4098e+07 3.46209e+07 3.05766e+07 3.06393e+07 3.0803e+07 3.10939e+07 3.12562e+07 3.13225e+07
          3.14319e+07 3.15187e+07 3.16208e+07 3.17312e+07 3.28474e+07 3.40701e+07 3.43193e+07 3.4523e+07 3.49305e+07 3.07445e+07 3.08042e+07 3.09481e+07
          3.12397e+07 3.1447e+07 3.1515e+07 3.16382e+07 3.17393e+07 3.18639e+07 3.20122e+07 3.33074e+07 3.44581e+07 3.47346e+07 3.49196e+07 3.52054e+07
        </DataArray>
        <DataArray type="Float32" Name="pressure[2]" NumberOfComponents="1" format="ascii">
          2.08073e+07 2.08217e+07 2.14098e+07 2.21081e+07 2.24332e+07 2.28691e+07 2.30197e+07 2.30736e+07 2.31381e+07 2.32067e+07 2.34145e+07 2.37779e+07
          2.40549e+07 2.47211e+07 2.55289e+07 2.08509e+07 2.08654e+07 2.1529e+07 2.23103e+07 2.26227e+07 2.30705e+07 2.31806e+07 2.32212e+07 2.32867e+07
          2.33647e+07 2.36679e+07 2.40419e+07 2.42555e+07 2.49418e+07 2.5698e+07 2.08946e+07 2.0909e+07 2.15627e+07 2.24792e+07 2.27783e+07 2.31841e+07
          2.33104e+07 2.33691e+07 2.34523e+07 2.3563e+07 2.3985e+07 2.44233e+07 2.46074e+07 2.52188e+07 2.59158e+07 2.09387e+07 2.09536e+07 2.14478e+07
          2.26267e+07 2.29465e+07 2.33623e+07 2.34883e+07 2.35464e+07 2.36843e+07 2.38657e+07 2.442e+07 2.48738e+07 2.50394e+07 2.55367e+07 2.6188e+07
          2.10269e+07 2.10528e+07 1.97318e+07 2.27667e+07 2.32962e+07 2.39557e+07 2.40425e+07 2.40846e+07 2.42045e+07 2.44996e+07 2.49321e+07 2.53101e+07
          2.54598e+07 2.58878e+07 2.6453e+07 2.12172e+07 2.12599e+07 2.14036e+07 2.3498e+07 2.40254e+07 2.45228e+07 2.4581e+07 2.46346e+07 2.47768e+07
          2.51705e+07 2.54822e+07 2.56708e+07 2.5836e+07 2.62413e+07 2.67491e+07 2.14592e+07 2.15082e+07 2.21587e+07 2.4232e+07 2.46999e+07 2.51041e+07
          2.5171e+07 2.52447e+07 2.5338e+07 2.56349e+07 2.58906e+07 2.59713e+07 2.61354e+07 2.66183e+07 2.71608e+07 2.1804e+07 2.1859e+07 2.31153e+07
          2.44272e+07 2.51847e+07 2.56013e+07 2.56568e+07 2.57077e+07 2.58001e+07 2.60123e+07 2.61676e+07 2.62296e+07 2.64589e+07 2.70017e+07 2.77286e+07
          2.22961e+07 2.23602e+07 2.35202e+07 2.45846e+07 2.5736e+07 2.60617e+07 2.61604e+07 2.62541e+07 2.62957e+07 2.63849e+07 2.64468e+07 2.64726e+07
          2.67153e+07 2.7431e+07 2.82922e+07 2.28874e+07 2.29864e+07 2.37144e+07 2.44417e+07 2.62399e+07 2.64717e+07 2.66918e+07 2.68925e+07 2.67985e+07
          2.67716e+07 2.67784e+07 2.68035e+07 2.70676e+07 2.78703e+07 2.86255e+07 2.37608e+07 2.38506e+07 2.43584e+07 2.48625e+07 2.66031e+07 2.67767e+07
          2.7129e+07 2.74304e+07 2.72665e+07 2.71755e+07 2.71222e+07 2.71353e+07 2.73662e+07 2.82654e+07 2.88834e+07 2.45577e+07 2.49434e+07 2.5151e+07
          2.55298e+07 2.69682e+07 2.70762e+07 2.75767e+07 2.79818e+07 2.80241e+07 2.76099e+07 2.75651e+07 2.77368e+07 2.826e+07 2.87638e+07 2.96545e+07
          2.58373e+07 2.58923e+07 2.59035e+07 2.62442e+07 2.74712e+07 2.758e+07 2.81182e+07 2.8589e+07 2.86862e+07 2.86655e+07 2.86164e+07 2.88489e+07
          2.93689e+07 3.019e+07 3.03392e+07 2.67908e+07 2.68274e+07 2.66515e+07 2.714e+07 2.82888e+07 2.83931e+07 2.88405e+07 2.91938e+07 2.92632e+07
          2.93434e+07 2.94116e+07 2.9877e+07 3.05074e+07 3.09985e+07 3.07629e+07 2.75351e+07 2.75336e+07 2.75659e+07 2.86384e+07 2.90957e+07 2.91568e+07
          2.94547e+07 2.96685e+07 2.97193e+07 2.97985e+07 2.99514e+07 3.06826e+07 3.12508e+07 3.14215e+07 3.12656e+07 2.81956e+07 2.82191e+07 2.83136e+07
          2.93463e+07 2.95747e+07 2.96288e+07 2.98395e+07 2.99783e+07 3.00271e+07 3.00998e+07 3.03849e+07 3.10851e+07 3.16061e+07 3.19049e+07 3.17388e+07
          2.88784e+07 2.89292e+07 2.9308e+07 2.98485e+07 2.99658e+07 3.00041e+07 3.01141e+07 3.02109e+07 3.02585e+07 3.0321e+07 3.06979e+07 3.15318e+07
          3.2094e+07 3.23864e+07 3.21714e+07 2.94305e+07 2.94901e+07 2.98495e+07 3.01219e+07 3.02416e+07 3.02857e+07 3.03719e+07 3.04445e+07 3.0494e+07
          3.05513e+07 3.10145e+07 3.18964e+07 3.24713e+07 3.27109e+07 3.26017e+07 2.97377e+07 2.98036e+07 3.00168e+07 3.03241e+07 3.04834e+07 3.05309e+07
          3.06071e+07 3.06715e+07 3.07172e+07 3.07724e+07 3.12819e+07 3.2257e+07 3.2846e+07 3.30262e+07 3.31924e+07 2.99849e+07 3.00433e+07 3.02347e+07
          3.05403e+07 3.06973e+07 3.07454e+07 3.08196e+07 3.08809e+07 3.09269e+07 3.09882e+07 3.14933e+07 3.25684e+07 3.32155e+07 3.3358e+07 3.3754e+07
          3.01935e+07 3.02594e+07 3.04122e+07 3.0695e+07 3.08895e+07 3.09422e+07 3.10223e+07 3.10873e+07 3.11486e+07 3.12257e+07 3.19396e+07 3.309e+07
          3.35594e+07 3.371e+07 3.41931e+07 3.03936e+07 3.0462e+07 3.05984e+07 3.08747e+07 3.10728e+07 3.11307e+07 3.12236e+07 3.12982e+07 3.13775e+07
          3.14662e+07 3.24298e+07 3.36255e+07 3.39157e+07 3.4098e+07 3.46209e+07 3.05766e+07 3.06393e+07 3.0803e+07 3.10939e+07 3.12562e+07 3.13225e+07
          3.14319e+07 3.15187e+07 3.16208e+07 3.17312e+07 3.28474e+07 3.40701e+07 3.43193e+07 3.4523e+07 3.49305e+07 3.07445e+07 3.08042e+07 3.09481e+07
          3.12397e+07 3.1447e+07 3.1515e+07 3.16382e+07 3.17393e+07 3.18639e+07 3.20122e+07 3.33074e+07 3.44581e+07 3.47346e+07 3.49196e+07 3.52054e+07
        </DataArray>
        <DataArray type="Float32" Name="velocity[0]" NumberOfComponents="1" format="ascii">
          -3.6474e-12 3.16559e-08 1.33259e-10 -1.60453e-08 -4.57692e-10 -2.06723e-09 -3.09669e-09 -8.95057e-10 -1.90471e-09 -2.79947e-09 -2.37931e-09 -3.56965e-09
          -2.64362e-09 -8.80643e-10 -2.95523e-09 -7.78079e-10 9.11161e-08 6.70309e-10 -5.75074e-08 -6.00934e-10 -8.81581e-10 -1.28476e-09 -1.78983e-09 -6.40785e-09
          -8.5811e-09 -5.12166e-09 -1.48777e-08 -9.32302e-09 -2.45853e-09 -7.77234e-09 -7.28995e-09 1.34453e-07 1.36663e-09 -7.00372e-08 -6.65936e-10 -1.2185e-09
          -3.31014e-09 -5.6057e-09 -1.18035e-08 -1.49025e-08 -6.55779e-09 -3.67566e-08 -1.26696e-08 -4.63485e-09 -1.14636e-08 -1.90182e-08 1.63585e-07 6.35172e-09
          -2.45531e-08 -2.24244e-09 -1.51864e-08 -3.13373e-08 -3.15405e-08 -2.09871e-08 -2.38535e-08 -8.95314e-09 -6.47155e-08 -8.80993e-09 -6.33805e-09 -1.53425e-08
          -8.36826e-08 -1.36612e-08 1.08615e-09 -6.36545e-08 -8.3207e-09 -4.42378e-08 -6.46638e-08 -6.37651e-08 -2.17737e-08 -2.24015e-08 -1.17398e-08 -1.03393e-07
          -4.34943e-09 -5.65772e-09 -1.86151e-08 -1.52876e-07 -1.88259e-07 -5.98352e-09 -9.50864e-08 -1.47807e-08 -1.02436e-07 -6.9597e-08 -9.62155e-08 -1.41587e-08
          -9.60787e-09 -1.39437e-08 -1.37189e-07 -2.46416e-09 -4.44758e-09 -2.07117e-08 -1.57866e-07 -1.69071e-07 -4.02003e-09 -3.00206e-08 -1.24028e-08 -1.62487e-07
          -5.3171e-08 -1.60089e-07 -9.61657e-09 -3.03846e-09 -1.51377e-08 -1.51421e-07 -1.94607e-09 -4.24479e-09 -2.21145e-08 -1.44296e-07 -1.56666e-07 -3.60484e-09
          -2.87519e-09 -8.06863e-09 -1.94266e-07 -3.05655e-08 -2.37935e-07 -6.08876e-09 -2.17634e-09 -1.65149e-08 -1.55553e-07 -1.50351e-09 -4.25092e-09 -2.37237e-08
          -1.2823e-07 -1.38917e-07 -1.45741e-09 1.62974e-09 -7.18568e-09 -2.13661e-07 -1.16278e-08 -3.06003e-07 -4.39687e-09 -2.30598e-09 -2.62849e-08 -1.40624e-07
          -1.34464e-09 -3.82223e-09 -2.58885e-08 -1.02397e-07 -1.22341e-07 -8.07642e-09 6.64582e-10 -5.57684e-09 -2.19935e-07 -3.96207e-09 -3.73629e-07 -3.98862e-09
          -2.91794e-09 -4.48604e-08 -1.0921e-07 -1.8908e-09 -3.45198e-09 -2.80379e-08 -7.88574e-08 -8.56805e-08 -2.75171e-08 -2.46693e-09 -5.13129e-09 -2.19864e-07
          -1.34643e-09 -4.3804e-07 -4.66104e-09 -4.50014e-09 -6.72724e-08 -6.4198e-08 -4.09612e-09 -4.77728e-09 -2.98017e-08 -5.4263e-08 -5.49618e-08 -4.89398e-08
          -2.53959e-09 -7.81106e-09 -2.23037e-07 -1.12643e-09 -4.80576e-07 -1.48834e-08 -6.24631e-09 -6.04663e-08 -3.42961e-08 -1.15248e-08 -7.88991e-09 -3.09552e-08
          -3.51312e-08 -6.25763e-08 -4.68113e-08 -3.59402e-09 -1.25591e-08 -2.1102e-07 -1.61464e-09 -4.90924e-07 -4.43645e-08 -7.21696e-09 -3.17914e-08 -2.05033e-08
          -2.48993e-08 -1.33967e-08 -3.12648e-08 -3.61454e-08 -7.54522e-08 -2.75505e-08 -4.30433e-09 -1.87166e-08 -1.95704e-07 -1.64922e-09 -4.61315e-07 -7.72702e-08
          -1.21218e-08 -1.76953e-08 -6.32429e-09 -3.065e-08 -2.43547e-08 -2.96762e-08 -4.40166e-08 -7.0704e-08 -1.53394e-08 -3.26148e-09 -2.50384e-08 -1.9363e-07
          -1.1665e-09 -4.16198e-07 -9.32362e-08 -2.05365e-08 -1.21332e-08 -3.35105e-09 -2.87879e-08 -3.81915e-08 -2.62555e-08 -5.42538e-08 -5.62963e-08 -7.56439e-09
          -3.14318e-09 -3.08754e-08 -1.90693e-07 -1.43872e-09 -3.53084e-07 -9.7375e-08 -2.94656e-08 -7.58008e-09 -4.58486e-09 -3.27344e-08 -5.62786e-08 -2.19234e-08
          -5.79767e-08 -4.43621e-08 -3.56408e-09 -4.1527e-09 -4.36647e-08 -1.66594e-07 -2.78526e-09 -2.7935e-07 -9.80486e-08 -4.60692e-08 -3.24816e-09 -4.54785e-09
          -2.67193e-08 -8.35091e-08 -1.73011e-08 -5.66672e-08 -3.51146e-08 -1.53506e-09 -2.81257e-09 -6.45277e-08 -1.19828e-07 -4.27635e-09 -2.13177e-07 -1.05633e-07
          -6.93887e-08 -2.32092e-09 -3.08338e-09 -1.73635e-08 -1.09098e-07 -1.34329e-08 -5.0886e-08 -2.50095e-08 -1.05893e-09 -1.13933e-09 -8.01908e-08 -7.62413e-08
          -4.50484e-09 -1.51926e-07 -1.05428e-07 -1.08806e-07 -1.35563e-09 -2.54373e-09 -2.2698e-08 -1.24633e-07 -1.17163e-08 -4.21308e-08 -1.68356e-08 -1.28883e-09
          -5.44495e-10 -8.58183e-08 -4.35221e-08 -3.77037e-09 -1.11162e-07 -6.81391e-08 -1.88363e-07 -2.36164e-09 -3.6124e-09 -3.37614e-08 -1.32095e-07 -1.25731e-08
          -3.21762e-08 -1.13497e-08 -1.20076e-09 -1.35806e-10 -8.00765e-08 -2.2858e-08 -3.24291e-09 -8.74451e-08 -2.84973e-08 -2.61226e-07 -3.70058e-09 -6.65127e-09
          -4.10996e-08 -1.37978e-07 -1.44138e-08 -2.02316e-08 -5.7869e-09 -1.91988e-09 -7.37954e-10 -5.93449e-08 -1.56033e-08 -3.17499e-09 -8.2491e-08 -1.54573e-08
          -2.76121e-07 -3.37892e-09 -1.27917e-08 -4.49822e-08 -1.43939e-07 -1.7861e-08 -9.44036e-09 -2.31194e-09 -8.65386e-10 -4.87674e-10 -2.96905e-08 -1.16735e-08
          -2.60751e-09 -8.70179e-08 -1.24559e-08 -2.37889e-07 -4.68959e-09 -2.20614e-08 -5.88974e-08 -1.49879e-07 -2.32914e-08 -2.50018e-09 -5.20267e-10 1.92926e-10
          7.28144e-11 -7.02077e-09 -4.45954e-09 -9.54836e-10 -4.43437e-08 -5.80153e-09 -1.02849e-07 -3.09351e-09 -1.33832e-08 -3.51431e-08 -7.70059e-08 -1.30718e-08
        </DataArray>
        <DataArray type="Float32" Name="velocity[1]" NumberOfComponents="1" format="ascii">
          5.66849e-28 4.95294e-24 -3.74955e-25 -2.49362e-24 7.11308e-26 0 4.81262e-25 -4.03046e-26 -3.17851e-25 5.88863e-24 -3.36841e-24 -1.06301e-25
          2.38525e-24 -9.17846e-25 4.60336e-25 1.19789e-25 4.29401e-24 -4.55404e-25 -3.95008e-24 5.20432e-25 7.88747e-24 2.06238e-24 7.60867e-25 -7.7366e-24
          5.24368e-25 0 1.01363e-25 -9.178e-26 -6.4445e-28 2.89356e-25 8.92233e-25 -6.50808e-24 -1.57658e-24 2.0028e-24 1.25541e-24 0
          1.57256e-24 8.01482e-25 -4.34717e-25 0 7.12317e-24 -1.20084e-23 0 1.13293e-24 -2.82156e-25 1.80926e-24 1.05808e-23 -1.84977e-24
          2.32499e-24 9.63942e-25 9.45663e-24 -2.27312e-23 2.94469e-23 -2.20497e-24 1.14811e-25 3.721e-24 -4.56701e-24 2.79335e-24 -1.26962e-24 9.54446e-25
          -2.28067e-26 -5.93191e-23 3.01895e-24 4.22178e-24 1.26451e-24 -1.96689e-24 -4.28028e-25 1.75394e-25 1.67296e-24 -4.78845e-24 4.34476e-24 -7.71548e-24
          5.6341e-27 1.42129e-25 -1.54154e-24 -5.37911e-26 5.04992e-24 -2.06677e-25 4.17973e-24 -3.38075e-25 -5.48153e-24 0 1.60554e-25 2.19342e-24
          -1.00487e-24 9.45098e-26 8.10008e-24 -1.20016e-24 7.08778e-25 1.54377e-24 -7.70886e-25 5.7527e-25 0 3.19014e-24 -8.38315e-25 -1.06917e-23
          2.34097e-25 1.43866e-25 -1.39336e-24 -2.15618e-26 1.81704e-26 1.36084e-26 3.55577e-27 1.92959e-27 -1.6773e-24 -1.13869e-25 1.13941e-23 1.81814e-24
          9.93373e-25 1.45435e-25 1.22553e-23 5.10952e-27 -8.40358e-27 3.21388e-25 1.23015e-26 -2.0352e-24 -1.12143e-23 6.83197e-27 -3.14907e-25 1.92739e-24
          -1.36167e-24 -7.5529e-24 1.36018e-25 -2.79281e-24 -8.11986e-26 2.37928e-24 0 0 3.59062e-25 -7.29438e-27 1.2467e-25 4.27851e-24
          1.21324e-26 5.47163e-26 9.75228e-28 -9.34098e-24 1.5201e-24 1.47791e-24 -5.47244e-25 -2.17708e-24 2.77871e-24 -5.22086e-24 5.57493e-24 -2.01321e-25
          -6.54779e-26 2.2867e-25 3.65613e-24 -8.04104e-25 0 -2.09599e-24 5.05145e-24 1.16748e-25 1.86718e-24 -1.91128e-25 2.0842e-24 -2.25169e-27
          -3.41248e-24 8.87375e-24 5.43894e-26 1.69773e-25 -6.20444e-25 5.58143e-24 1.68051e-24 -2.15724e-25 1.07862e-25 -2.75051e-24 8.33861e-25 -1.45892e-24
          -1.98255e-26 -1.35743e-24 -1.74383e-23 2.92032e-26 2.17765e-24 -3.38815e-24 -9.29738e-26 1.44323e-24 2.07149e-24 -1.0214e-24 8.88785e-25 -6.9892e-26
          2.70978e-24 4.08911e-24 0 -1.53731e-25 4.24944e-25 2.08249e-24 4.81146e-26 -5.64224e-25 -3.05359e-24 1.71304e-27 -1.75859e-24 -7.18704e-25
          1.23886e-24 -7.48417e-25 -6.31255e-28 1.98832e-25 -1.74573e-27 7.87071e-25 8.51441e-26 2.05798e-27 1.44549e-23 -3.99042e-26 -4.03384e-24 5.6595e-24
          -1.02969e-24 1.75665e-24 1.93005e-24 -3.88279e-24 3.66704e-28 -2.19337e-24 -2.90235e-24 -4.90331e-24 1.88889e-27 3.12801e-25 4.49226e-25 -2.35099e-28
          -3.37228e-26 -7.2935e-24 1.91857e-24 0 0 2.64165e-25 3.30309e-24 -4.15552e-25 4.08093e-24 0 1.049e-24 0
          -2.94416e-25 4.59399e-25 -3.34002e-28 7.60279e-26 -6.83107e-24 5.73201e-28 4.16608e-28 3.86018e-28 3.531e-24 2.5818e-28 -1.04725e-24 -1.88616e-24
          -8.56005e-29 8.06176e-25 6.80919e-28 -5.75335e-26 1.53032e-24 -8.72964e-24 0 -8.97533e-24 0 -1.77318e-28 2.61546e-24 -3.24476e-24
          -1.49309e-24 5.38446e-29 1.16827e-24 0 3.04434e-24 0 3.51197e-25 1.44541e-24 4.25881e-24 9.75398e-26 -5.65624e-24 -4.85143e-24
          -1.83203e-24 1.549e-25 4.53825e-26 1.54163e-28 -1.5234e-24 -9.1936e-25 3.61269e-24 -1.85258e-24 2.00628e-24 -1.62876e-24 7.22109e-25 7.33354e-24
          -6.20213e-26 -3.86271e-24 8.85584e-24 4.67121e-24 -2.80872e-24 6.12534e-26 7.89824e-25 -2.29697e-28 9.01491e-25 4.7464e-28 -3.28233e-24 7.1219e-25
          -1.49205e-24 3.05481e-25 -2.26847e-24 -1.03285e-25 -4.94394e-24 -4.47095e-24 8.07133e-24 2.289e-25 3.01284e-24 9.29724e-25 -3.02052e-25 -7.50464e-25
          -8.6929e-25 5.22067e-25 0 -3.31628e-26 -1.04533e-24 3.75832e-24 -6.60695e-24 6.60907e-24 -4.845e-24 5.84174e-28 0 0
          2.10786e-25 -4.50162e-28 1.18756e-24 -9.87053e-25 -1.03936e-24 9.57542e-25 -1.6087e-24 -7.24261e-25 -1.12034e-24 1.84604e-26 4.43943e-25 -3.16414e-24
          1.14319e-23 -2.19276e-25 -5.50233e-24 3.92429e-25 8.01988e-25 6.44494e-29 -6.89505e-25 -5.04941e-28 -6.15579e-28 9.6676e-26 -2.43268e-24 4.28835e-25
          -1.08452e-25 8.64326e-24 -3.59356e-24 0 -2.32718e-25 -7.31013e-25 5.5939e-24 -6.42983e-25 0 -3.89075e-25 -5.79274e-28 -3.17541e-25
          5.38001e-25 -1.09042e-24 -1.826e-24 -2.98438e-25 -2.33427e-24 9.01626e-25 -2.49652e-23 0 2.49942e-23 -1.83637e-23 1.51968e-23 3.81003e-25
        </DataArray>
        <DataArray type="Float32" Name="velocity[2]" NumberOfComponents="1" format="ascii">
          -2.75402e-11 3.95609e-09 -3.39514e-09 -5.94142e-09 -2.82002e-09 -3.30043e-09 -3.51208e-09 -3.11868e-09 -3.31207e-09 -3.43393e-09 -3.2401e-09 -3.20146e-09
          -2.72254e-09 -2.19504e-09 -1.50391e-09 -1.14723e-10 1.47303e-08 -2.88879e-09 -1.24663e-08 -1.67391e-09 -2.22971e-09 -2.8002e-09 -3.12713e-09 -3.94565e-09
          -4.24864e-09 -3.63369e-09 -4.97571e-09 -3.34139e-09 -1.78576e-09 -1.98888e-09 -9.28246e-10 2.36262e-08 -9.01371e-10 -1.47033e-08 -3.60386e-09 -3.88748e-09
          -4.15745e-09 -4.39625e-09 -5.39299e-09 -5.84194e-09 -4.30197e-09 -8.81275e-09 -3.84616e-09 -2.27775e-09 -2.6289e-09 -2.97594e-09 2.88927e-08 -1.53555e-10
          -8.15409e-09 -6.28715e-09 -8.40005e-09 -1.04634e-08 -9.46451e-09 -6.80674e-09 -6.91433e-09 -4.11164e-09 -1.31725e-08 -2.77483e-09 -2.5151e-09 -3.38567e-09
          -1.08344e-08 2.54639e-09 5.75432e-10 -1.38823e-08 -5.44e-09 -1.0999e-08 -1.3617e-08 -1.29664e-08 -5.8134e-09 -6.80789e-09 -5.347e-09 -2.00477e-08
          -1.18419e-09 -1.65573e-09 -3.68771e-09 -2.62329e-08 -3.25436e-08 -1.49206e-09 -1.96796e-08 -7.73228e-09 -2.14755e-08 -1.41949e-08 -1.85756e-08 -4.0218e-09
          -3.44456e-09 -3.92499e-09 -2.51034e-08 -8.62305e-10 -1.30871e-09 -3.94096e-09 -2.81678e-08 -3.05833e-08 -1.53178e-09 -7.40684e-09 -5.93471e-09 -3.17984e-08
          -1.1917e-08 -2.99709e-08 -2.51083e-09 -1.54598e-09 -3.69723e-09 -2.73946e-08 -7.23155e-10 -1.11189e-09 -4.07368e-09 -2.59317e-08 -2.90084e-08 -2.54508e-09
          -2.73708e-09 -3.9252e-09 -3.63681e-08 -7.40271e-09 -4.33592e-08 -1.56922e-09 -9.44535e-10 -3.4224e-09 -2.79596e-08 -9.06985e-10 -1.44716e-09 -4.54113e-09
          -2.30924e-08 -2.58124e-08 -2.00459e-09 -1.69103e-09 -3.42791e-09 -3.94752e-08 -3.62215e-09 -5.48208e-08 -8.43188e-10 -5.13295e-10 -4.18008e-09 -2.46107e-08
          -8.6356e-10 -1.33591e-09 -4.92366e-09 -1.91908e-08 -2.41826e-08 -3.72337e-09 -1.3948e-09 -2.41832e-09 -4.03656e-08 -2.43111e-09 -6.67184e-08 -5.66239e-10
          -3.45009e-10 -7.11089e-09 -1.89063e-08 -1.03359e-09 -1.30642e-09 -5.29679e-09 -1.425e-08 -1.71787e-08 -7.25922e-09 -1.79751e-09 -2.23232e-09 -3.99789e-08
          -1.37494e-09 -7.76284e-08 -4.25791e-10 -3.31535e-10 -1.05557e-08 -1.08564e-08 -1.76947e-09 -1.53094e-09 -5.48638e-09 -1.08252e-08 -1.23393e-08 -1.05971e-08
          -1.59751e-09 -2.41644e-09 -4.01965e-08 -9.97386e-10 -8.51619e-08 -2.08196e-09 5.42019e-11 -1.07187e-08 -7.49351e-09 -3.27212e-09 -1.98133e-09 -5.60834e-09
          -6.21269e-09 -1.05714e-08 -8.29288e-09 -1.62292e-09 -3.00948e-09 -3.84845e-08 -2.17648e-09 -8.85471e-08 -8.7221e-09 -9.79843e-10 -5.88221e-09 -5.15004e-09
          -6.07035e-09 -2.88574e-09 -5.46035e-09 -6.28687e-09 -1.29862e-08 -5.06571e-09 -1.65137e-09 -4.02404e-09 -3.5134e-08 -1.01917e-09 -8.27577e-08 -1.49475e-08
          -2.48452e-09 -3.59655e-09 -2.07906e-09 -6.69127e-09 -4.52961e-09 -4.75052e-09 -7.31966e-09 -1.19679e-08 -2.97945e-09 -1.27812e-09 -5.00272e-09 -3.45843e-08
          -6.59571e-10 -7.43602e-08 -1.77598e-08 -4.62401e-09 -3.02967e-09 -1.52568e-09 -5.99075e-09 -6.51968e-09 -3.9698e-09 -9.32327e-09 -9.77774e-09 -1.80777e-09
          -1.28151e-09 -5.98276e-09 -3.41373e-08 -8.8264e-10 -6.40488e-08 -2.00452e-08 -7.78217e-09 -3.96752e-09 -3.60979e-09 -8.25524e-09 -1.02586e-08 -3.07962e-09
          -1.02181e-08 -8.07162e-09 -1.19907e-09 -1.34712e-09 -7.77179e-09 -2.99183e-08 -2.00557e-09 -5.15447e-08 -2.0415e-08 -1.08371e-08 -2.85538e-09 -3.19104e-09
          -7.82045e-09 -1.58438e-08 -2.29431e-09 -1.0085e-08 -6.58045e-09 -9.77058e-10 -1.40231e-09 -1.17786e-08 -2.21266e-08 -2.93002e-09 -4.07061e-08 -2.22205e-08
          -1.48581e-08 -2.59189e-09 -2.76672e-09 -5.27674e-09 -1.9802e-08 -1.83403e-09 -9.26436e-09 -5.29773e-09 -1.30584e-09 -1.24621e-09 -1.49368e-08 -1.48395e-08
          -3.04745e-09 -2.97166e-08 -2.2693e-08 -2.2696e-08 -2.6733e-09 -2.9362e-09 -6.17502e-09 -2.28549e-08 -2.02709e-09 -7.7186e-09 -3.65649e-09 -1.07485e-09
          -1.02856e-09 -1.60445e-08 -9.21486e-09 -2.89516e-09 -2.22651e-08 -1.68283e-08 -3.7676e-08 -2.70713e-09 -2.74662e-09 -7.57635e-09 -2.42285e-08 -2.54063e-09
          -6.04686e-09 -2.91569e-09 -1.2493e-09 -1.00593e-09 -1.54504e-08 -6.00375e-09 -2.83436e-09 -1.78958e-08 -8.36357e-09 -4.92177e-08 -2.97839e-09 -3.4127e-09
          -9.30212e-09 -2.56019e-08 -2.83109e-09 -3.99113e-09 -1.97804e-09 -1.3898e-09 -1.14582e-09 -1.22085e-08 -5.29764e-09 -3.15788e-09 -1.70644e-08 -5.29731e-09
          -5.16316e-08 -3.79126e-09 -5.18887e-09 -1.04228e-08 -2.74018e-08 -4.00884e-09 -1.96087e-09 -1.06385e-09 -9.81294e-10 -1.05542e-09 -7.07162e-09 -4.85823e-09
          -3.40713e-09 -1.82657e-08 -5.1251e-09 -4.62153e-08 -6.28641e-09 -8.97208e-09 -1.44257e-08 -2.90198e-08 -5.05786e-09 -6.07766e-10 -4.51741e-10 -3.35811e-10
          -3.37263e-10 -1.95942e-09 -2.09083e-09 -1.70681e-09 -1.05659e-08 -5.30088e-09 -2.68746e-08 -1.15124e-08 -1.00929e-08 -1.15287e-08 -1.61274e-08 -2.71359e-09
        </DataArray>
        <DataArray type="Float32" Name="z[0]" NumberOfComponents="1" format="ascii">
          0.150578 0.150579 0.15058 0.150582 0.150582 0.150583 0.150584 0.150585 0.150585 0.150586 0.150587 0.150588
          0.150589 0.150591 0.150596 0.150581 0.150582 0.150583 0.150585 0.150586 0.150587 0.150587 0.150588 0.150588
          0.150589 0.15059 0.150591 0.150593 0.150595 0.150599 0.150584 0.150585 0.150587 0.150588 0.150589 0.15059
          0.15059 0.150591 0.150592 0.150593 0.150593 0.150595 0.150596 0.150598 0.150602 0.150588 0.150589 0.15059
          0.150591 0.150924 0.177567 0.198803 0.231545 0.150595 0.150596 0.150597 0.150598 0.150599 0.150601 0.150605
          0.150591 0.150592 0.153472 0.395105 0.39634 0.40914 0.398564 0.392172 0.150598 0.150599 0.1506 0.150601
          0.150602 0.150604 0.150609 0.150594 0.150595 0.166286 0.423875 0.448002 0.452276 0.427129 0.412267 0.150601
          0.150602 0.150603 0.150604 0.150605 0.150607 0.150612 0.150597 0.150598 0.17073 0.425544 0.45883 0.465519