<?xml version="1.0"?>
<VTKFile type="UnstructuredGrid" version="0.1" byte_order="LittleEndian">
  <UnstructuredGrid>
    <Piece NumberOfCells="360" NumberOfPoints="800">
      <CellData Scalars="pressure[0]">
        <DataArray type="Float32" Name="pressure[0]" NumberOfComponents="1" format="ascii">
          2.10202e+07 2.10347e+07 2.16403e+07 2.22699e+07 2.2644e+07 2.30696e+07 2.32023e+07 2.32517e+07 2.33114e+07 2.33778e+07 2.35661e+07 2.38776e+07
          2.4109e+07 2.47352e+07 2.54819e+07 2.10643e+07 2.10788e+07 2.17483e+07 2.24111e+07 2.28218e+07 2.32482e+07 2.33455e+07 2.3384e+07 2.34456e+07
          2.35207e+07 2.37824e+07 2.40976e+07 2.42851e+07 2.49284e+07 2.56483e+07 2.11093e+07 2.11246e+07 2.18234e+07 2.25572e+07 2.29223e+07 2.33216e+07
          2.34384e+07 2.3495e+07 2.3575e+07 2.36791e+07 2.40327e+07 2.43903e+07 2.45765e+07 2.51722e+07 2.58592e+07 2.12069e+07 2.12537e+07 2.16965e+07
          2.2692e+07 2.305e+07 2.34339e+07 2.35393e+07 2.35912e+07 2.37154e+07 2.38787e+07 2.43509e+07 2.47601e+07 2.49448e+07 2.54625e+07 2.61221e+07
          2.13399e+07 2.13641e+07 1.97995e+07 2.27937e+07 2.32397e+07 2.36439e+07 2.37133e+07 2.375e+07 2.39508e+07 2.42572e+07 2.47319e+07 2.51146e+07
          2.53056e+07 2.57914e+07 2.63807e+07 2.15405e+07 2.15836e+07 2.21937e+07 2.33163e+07 2.36403e+07 2.39096e+07 2.39494e+07 2.39792e+07 2.42498e+07
          2.47003e+07 2.51835e+07 2.54352e+07 2.56412e+07 2.61219e+07 2.66709e+07 2.17977e+07 2.18482e+07 2.28932e+07 2.38128e+07 2.40263e+07 2.42123e+07
          2.42483e+07 2.43005e+07 2.45425e+07 2.51301e+07 2.56057e+07 2.57193e+07 2.59155e+07 2.64802e+07 2.70758e+07 2.2167e+07 2.22217e+07 2.33438e+07
          2.41765e+07 2.43702e+07 2.4503e+07 2.45437e+07 2.46253e+07 2.49038e+07 2.5494e+07 2.58884e+07 2.59781e+07 2.62402e+07 2.68522e+07 2.76362e+07
          2.27046e+07 2.2767e+07 2.36899e+07 2.44605e+07 2.46744e+07 2.47657e+07 2.495e+07 2.51462e+07 2.54465e+07 2.59458e+07 2.6191e+07 2.62314e+07
          2.64984e+07 2.72765e+07 2.81968e+07 2.33581e+07 2.34594e+07 2.39948e+07 2.45772e+07 2.49335e+07 2.49967e+07 2.54154e+07 2.58626e+07 2.60833e+07
          2.64068e+07 2.65641e+07 2.65991e+07 2.68805e+07 2.7706e+07 2.85301e+07 2.42265e+07 2.43545e+07 2.45985e+07 2.49671e+07 2.52588e+07 2.53393e+07
          2.58959e+07 2.65089e+07 2.66791e+07 2.68477e+07 2.69501e+07 2.69962e+07 2.72328e+07 2.80617e+07 2.87757e+07 2.49492e+07 2.5023e+07 2.51436e+07
          2.5405e+07 2.56274e+07 2.56889e+07 2.63896e+07 2.71416e+07 2.72013e+07 2.72907e+07 2.73523e+07 2.74026e+07 2.76174e+07 2.84179e+07 2.90464e+07
          2.5487e+07 2.55385e+07 2.55891e+07 2.5852e+07 2.60607e+07 2.62839e+07 2.70725e+07 2.77876e+07 2.78729e+07 2.78097e+07 2.78357e+07 2.79051e+07
          2.83191e+07 2.95366e+07 2.98506e+07 2.59062e+07 2.59595e+07 2.6052e+07 2.64097e+07 2.71768e+07 2.7307e+07 2.79297e+07 2.84315e+07 2.84899e+07
          2.84706e+07 2.83514e+07 2.88018e+07 2.98437e+07 3.05626e+07 3.03027e+07 2.62498e+07 2.62927e+07 2.66613e+07 2.71994e+07 2.81687e+07 2.82595e+07
          2.86588e+07 2.89729e+07 2.9024e+07 2.90951e+07 2.92219e+07 3.01058e+07 3.0839e+07 3.10311e+07 3.08493e+07 2.71212e+07 2.71549e+07 2.74773e+07
          2.82358e+07 2.87648e+07 2.88403e+07 2.91292e+07 2.93215e+07 2.9373e+07 2.94527e+07 2.97719e+07 3.06055e+07 3.12289e+07 3.15704e+07 3.13655e+07
          2.79696e+07 2.80072e+07 2.81403e+07 2.90703e+07 2.92589e+07 2.9299e+07 2.94384e+07 2.95634e+07 2.9613e+07 2.96791e+07 3.01211e+07 3.11122e+07
          3.17777e+07 3.21074e+07 3.18381e+07 2.86506e+07 2.87086e+07 2.90893e+07 2.94217e+07 2.95678e+07 2.96126e+07 2.97174e+07 2.98072e+07 2.98591e+07
          2.99189e+07 3.04663e+07 3.15147e+07 3.21939e+07 3.24605e+07 3.23099e+07 2.89852e+07 2.90527e+07 2.92895e+07 2.96472e+07 2.98313e+07 2.98796e+07
          2.99687e+07 3.00452e+07 3.00924e+07 3.01496e+07 3.07523e+07 3.19117e+07 3.26073e+07 3.28031e+07 3.29698e+07 2.92494e+07 2.93088e+07 2.95246e+07
          2.98789e+07 3.00582e+07 3.01071e+07 3.01921e+07 3.02632e+07 3.03108e+07 3.03753e+07 3.0972e+07 3.22501e+07 3.30148e+07 3.31653e+07 3.35973e+07
          2.94679e+07 2.95364e+07 2.97071e+07 3.00339e+07 3.02578e+07 3.03123e+07 3.04032e+07 3.04778e+07 3.05438e+07 3.06274e+07 3.14734e+07 3.28403e+07
          3.33916e+07 3.35514e+07 3.40843e+07 2.96762e+07 2.97477e+07 2.98989e+07 3.0218e+07 3.04463e+07 3.05068e+07 3.06125e+07 3.06981e+07 3.07857e+07
          3.08834e+07 3.20268e+07 3.34463e+07 3.37828e+07 3.39804e+07 3.45587e+07 2.9864e+07 2.99287e+07 3.01127e+07 3.04494e+07 3.06347e+07 3.07053e+07
          3.08305e+07 3.09301e+07 3.10451e+07 3.11685e+07 3.24932e+07 3.39434e+07 3.42302e+07 3.44534e+07 3.48948e+07 3.00336e+07 3.00947e+07 3.02551e+07
          3.05927e+07 3.0832e+07 3.09046e+07 3.10461e+07 3.11628e+07 3.13044e+07 3.1473e+07 3.30104e+07 3.43737e+07 3.46928e+07 3.48932e+07 3.51904e+07
        </DataArray>
        <DataArray type="Float32" Name="pressure[1]" NumberOfComponents="1" format="ascii">
          2.10202e+07 2.10347e+07 2.16403e+07 2.22699e+07 2.2644e+07 2.30696e+07 2.32023e+07 2.32517e+07 2.33114e+07 2.33778e+07 2.35661e+07 2.38776e+07
          2.4109e+07 2.47352e+07 2.54819e+07 2.10643e+07 2.10788e+07 2.17483e+07 2.24111e+07 2.28218e+07 2.32482e+07 2.33455e+07 2.3384e+07 2.34456e+07
          2.35207e+07 2.37824e+07 2.40976e+07 2.42851e+07 2.49284e+07 2.56483e+07 2.11093e+07 2.11246e+07 2.18234e+07 2.25572e+07 2.29223e+07 2.33216e+07
          2.34384e+07 2.3495e+07 2.3575e+07 2.36791e+07 2.40327e+07 2.43903e+07 2.45765e+07 2.51722e+07 2.58592e+07 2.12069e+07 2.12537e+07 2.16965e+07
          2.2692e+07 2.305e+07 2.34339e+07 2.35393e+07 2.35912e+07 2.37154e+07 2.38787e+07 2.43509e+07 2.47601e+07 2.49448e+07 2.54625e+07 2.61221e+07
          2.13399e+07 2.13641e+07 1.97995e+07 2.27937e+07 2.32397e+07 2.36439e+07 2.37133e+07 2.375e+07 2.39508e+07 2.42572e+07 2.47319e+07 2.51146e+07
          2.53056e+07 2.57914e+07 2.63807e+07 2.15405e+07 2.15836e+07 2.21937e+07 2.33163e+07 2.36403e+07 2.39096e+07 2.39494e+07 2.39792e+07 2.42498e+07
          2.47003e+07 2.51835e+07 2.54352e+07 2.56412e+07 2.61219e+07 2.66709e+07 2.17977e+07 2.18482e+07 2.28932e+07 2.38128e+07 2.40263e+07 2.42123e+07
          2.42483e+07 2.43005e+07 2.45425e+07 2.51301e+07 2.56057e+07 2.57193e+07 2.59155e+07 2.64802e+07 2.70758e+07 2.2167e+07 2.22217e+07 2.33438e+07
          2.41765e+07 2.43702e+07 2.4503e+07 2.45437e+07 2.46253e+07 2.49038e+07 2.5494e+07 2.58884e+07 2.59781e+07 2.62402e+07 2.68522e+07 2.76362e+07
          2.27046e+07 2.2767e+07 2.36899e+07 2.44605e+07 2.46744e+07 2.47657e+07 2.495e+07 2.51462e+07 2.54465e+07 2.59458e+07 2.6191e+07 2.62314e+07
          2.64984e+07 2.72765e+07 2.81968e+07 2.33581e+07 2.34594e+07 2.39948e+07 2.45772e+07 2.49335e+07 2.49967e+07 2.54154e+07 2.58626e+07 2.60833e+07
          2.64068e+07 2.65641e+07 2.65991e+07 2.68805e+07 2.7706e+07 2.85301e+07 2.42265e+07 2.43545e+07 2.45985e+07 2.49671e+07 2.52588e+07 2.53393e+07
          2.58959e+07 2.65089e+07 2.66791e+07 2.68477e+07 2.69501e+07 2.69962e+07 2.72328e+07 2.80617e+07 2.87757e+07 2.49492e+07 2.5023e+07 2.51436e+07
          2.5405e+07 2.56274e+07 2.56889e+07 2.63896e+07 2.71416e+07 2.72013e+07 2.72907e+07 2.73523e+07 2.74026e+07 2.76174e+07 2.84179e+07 2.90464e+07
          2.5487e+07 2.55385e+07 2.55891e+07 2.5852e+07 2.60607e+07 2.62839e+07 2.70725e+07 2.77876e+07 2.78729e+07 2.78097e+07 2.78357e+07 2.79051e+07
          2.83191e+07 2.95366e+07 2.98506e+07 2.59062e+07 2.59595e+07 2.6052e+07 2.64097e+07 2.71768e+07 2.7307e+07 2.79297e+07 2.84315e+07 2.84899e+07
          2.84706e+07 2.83514e+07 2.88018e+07 2.98437e+07 3.05626e+07 3.03027e+07 2.62498e+07 2.62927e+07 2.66613e+07 2.71994e+07 2.81687e+07 2.82595e+07
          2.86588e+07 2.89729e+07 2.9024e+07 2.90951e+07 2.92219e+07 3.01058e+07 3.0839e+07 3.10311e+07 3.08493e+07 2.71212e+07 2.71549e+07 2.74773e+07
          2.82358e+07 2.87648e+07 2.88403e+07 2.91292e+07 2.93215e+07 2.9373e+07 2.94527e+07 2.97719e+07 3.06055e+07 3.12289e+07 3.15704e+07 3.13655e+07
          2.79696e+07 2.80072e+07 2.81403e+07 2.90703e+07 2.92589e+07 2.9299e+07 2.94384e+07 2.95634e+07 2.9613e+07 2.96791e+07 3.01211e+07 3.11122e+07
          3.17777e+07 3.21074e+07 3.18381e+07 2.86506e+07 2.87086e+07 2.90893e+07 2.94217e+07 2.95678e+07 2.96126e+07 2.97174e+07 2.98072e+07 2.98591e+07
          2.99189e+07 3.04663e+07 3.15147e+07 3.21939e+07 3.24605e+07 3.23099e+07 2.89852e+07 2.90527e+07 2.92895e+07 2.96472e+07 2.98313e+07 2.98796e+07
          2.99687e+07 3.00452e+07 3.00924e+07 3.01496e+07 3.07523e+07 3.19117e+07 3.26073e+07 3.28031e+07 3.29698e+07 2.92494e+07 2.93088e+07 2.95246e+07
          2.98789e+07 3.00582e+07 3.01071e+07 3.01921e+07 3.02632e+07 3.03108e+07 3.03753e+07 3.0972e+07 3.22501e+07 3.30148e+07 3.31653e+07 3.35973e+07
          2.94679e+07 2.95364e+07 2.97071e+07 3.00339e+07 3.02578e+07 3.03123e+07 3.04032e+07 3.04778e+07 3.05438e+07 3.06274e+07 3.14734e+07 3.28403e+07
          3.33916e+07 3.35514e+07 3.40843e+07 2.96762e+07 2.97477e+07 2.98989e+07 3.0218e+07 3.04463e+07 3.05068e+07 3.06125e+07 3.06981e+07 3.07857e+07
          3.08834e+07 3.20268e+07 3.34463e+07 3.37828e+07 3.39804e+07 3.45587e+07 2.9864e+07 2.99287e+07 3.01127e+07 3.04494e+07 3.06347e+07 3.07053e+07
          3.08305e+07 3.09301e+07 3.10451e+07 3.11685e+07 3.24932e+07 3.39434e+07 3.42302e+07 3.44534e+07 3.48948e+07 3.00336e+07 3.00947e+07 3.02551e+07
          3.05927e+07 3.0832e+07 3.09046e+07 3.10461e+07 3.11628e+07 3.13044e+07 3.1473e+07 3.30104e+07 3.43737e+07 3.46928e+07 3.48932e+07 3.51904e+07
        </DataArray>
        <DataArray type="Float32" Name="pressure[2]" NumberOfComponents="1" format="ascii">
          2.10202e+07 2.10347e+07 2.16403e+07 2.22699e+07 2.2644e+07 2.30696e+07 2.32023e+07 2.32517e+07 2.33114e+07 2.33778e+07 2.35661e+07 2.38776e+07
          2.4109e+07 2.47352e+07 2.54819e+07 2.10643e+07 2.10788e+07 2.17483e+07 2.24111e+07 2.28218e+07 2.32482e+07 2.33455e+07 2.3384e+07 2.34456e+07
          2.35207e+07 2.37824e+07 2.40976e+07 2.42851e+07 2.49284e+07 2.56483e+07 2.11093e+07 2.11246e+07 2.18234e+07 2.25572e+07 2.29223e+07 2.33216e+07
          2.34384e+07 2.3495e+07 2.3575e+07 2.36791e+07 2.40327e+07 2.43903e+07 2.45765e+07 2.51722e+07 2.58592e+07 2.12069e+07 2.12537e+07 2.16965e+07
          2.2692e+07 2.305e+07 2.34339e+07 2.35393e+07 2.35912e+07 2.37154e+07 2.38787e+07 2.43509e+07 2.47601e+07 2.49448e+07 2.54625e+07 2.61221e+07
          2.13399e+07 2.13641e+07 1.97995e+07 2.27937e+07 2.32397e+07 2.36439e+07 2.37133e+07 2.375e+07 2.39508e+07 2.42572e+07 2.47319e+07 2.51146e+07
          2.53056e+07 2.57914e+07 2.63807e+07 2.15405e+07 2.15836e+07 2.21937e+07 2.33163e+07 2.36403e+07 2.39096e+07 2.39494e+07 2.39792e+07 2.42498e+07
          2.47003e+07 2.51835e+07 2.54352e+07 2.56412e+07 2.61219e+07 2.66709e+07 2.17977e+07 2.18482e+07 2.28932e+07 2.38128e+07 2.40263e+07 2.42123e+07
          2.42483e+07 2.43005e+07 2.45425e+07 2.51301e+07 2.56057e+07 2.57193e+07 2.59155e+07 2.64802e+07 2.70758e+07 2.2167e+07 2.22217e+07 2.33438e+07
          2.41765e+07 2.43702e+07 2.4503e+07 2.45437e+07 2.46253e+07 2.49038e+07 2.5494e+07 2.58884e+07 2.59781e+07 2.62402e+07 2.68522e+07 2.76362e+07
          2.27046e+07 2.2767e+07 2.36899e+07 2.44605e+07 2.46744e+07 2.47657e+07 2.495e+07 2.51462e+07 2.54465e+07 2.59458e+07 2.6191e+07 2.62314e+07
          2.64984e+07 2.72765e+07 2.81968e+07 2.33581e+07 2.34594e+07 2.39948e+07 2.45772e+07 2.49335e+07 2.49967e+07 2.54154e+07 2.58626e+07 2.60833e+07
          2.64068e+07 2.65641e+07 2.65991e+07 2.68805e+07 2.7706e+07 2.85301e+07 2.42265e+07 2.43545e+07 2.45985e+07 2.49671e+07 2.52588e+07 2.53393e+07
          2.58959e+07 2.65089e+07 2.66791e+07 2.68477e+07 2.69501e+07 2.69962e+07 2.72328e+07 2.80617e+07 2.87757e+07 2.49492e+07 2.5023e+07 2.51436e+07
          2.5405e+07 2.56274e+07 2.56889e+07 2.63896e+07 2.71416e+07 2.72013e+07 2.72907e+07 2.73523e+07 2.74026e+07 2.76174e+07 2.84179e+07 2.90464e+07
          2.5487e+07 2.55385e+07 2.55891e+07 2.5852e+07 2.60607e+07 2.62839e+07 2.70725e+07 2.77876e+07 2.78729e+07 2.78097e+07 2.78357e+07 2.79051e+07
          2.83191e+07 2.95366e+07 2.98506e+07 2.59062e+07 2.59595e+07 2.6052e+07 2.64097e+07 2.71768e+07 2.7307e+07 2.79297e+07 2.84315e+07 2.84899e+07
          2.84706e+07 2.83514e+07 2.88018e+07 2.98437e+07 3.05626e+07 3.03027e+07 2.62498e+07 2.62927e+07 2.66613e+07 2.71994e+07 2.81687e+07 2.82595e+07
          2.86588e+07 2.89729e+07 2.9024e+07 2.90951e+07 2.92219e+07 3.01058e+07 3.0839e+07 3.10311e+07 3.08493e+07 2.71212e+07 2.71549e+07 2.74773e+07
          2.82358e+07 2.87648e+07 2.88403e+07 2.91292e+07 2.93215e+07 2.9373e+07 2.94527e+07 2.97719e+07 3.06055e+07 3.12289e+07 3.15704e+07 3.13655e+07
          2.79696e+07 2.80072e+07 2.81403e+07 2.90703e+07 2.92589e+07 2.9299e+07 2.94384e+07 2.95634e+07 2.9613e+07 2.96791e+07 3.01211e+07 3.11122e+07
          3.17777e+07 3.21074e+07 3.18381e+07 2.86506e+07 2.87086e+07 2.90893e+07 2.94217e+07 2.95678e+07 2.96126e+07 2.97174e+07 2.98072e+07 2.98591e+07
          2.99189e+07 3.04663e+07 3.15147e+07 3.21939e+07 3.24605e+07 3.23099e+07 2.89852e+07 2.90527e+07 2.92895e+07 2.96472e+07 2.98313e+07 2.98796e+07
          2.99687e+07 3.00452e+07 3.00924e+07 3.01496e+07 3.07523e+07 3.19117e+07 3.26073e+07 3.28031e+07 3.29698e+07 2.92494e+07 2.93088e+07 2.95246e+07
          2.98789e+07 3.00582e+07 3.01071e+07 3.01921e+07 3.02632e+07 3.03108e+07 3.03753e+07 3.0972e+07 3.22501e+07 3.30148e+07 3.31653e+07 3.35973e+07
          2.94679e+07 2.95364e+07 2.97071e+07 3.00339e+07 3.02578e+07 3.03123e+07 3.04032e+07 3.04778e+07 3.05438e+07 3.06274e+07 3.14734e+07 3.28403e+07
          3.33916e+07 3.35514e+07 3.40843e+07 2.96762e+07 2.97477e+07 2.98989e+07 3.0218e+07 3.04463e+07 3.05068e+07 3.06125e+07 3.06981e+07 3.07857e+07
          3.08834e+07 3.20268e+07 3.34463e+07 3.37828e+07 3.39804e+07 3.45587e+07 2.9864e+07 2.99287e+07 3.01127e+07 3.04494e+07 3.06347e+07 3.07053e+07
          3.08305e+07 3.09301e+07 3.10451e+07 3.11685e+07 3.24932e+07 3.39434e+07 3.42302e+07 3.44534e+07 3.48948e+07 3.00336e+07 3.00947e+07 3.02551e+07
          3.05927e+07 3.0832e+07 3.09046e+07 3.10461e+07 3.11628e+07 3.13044e+07 3.1473e+07 3.30104e+07 3.43737e+07 3.46928e+07 3.48932e+07 3.51904e+07
        </DataArray>
        <DataArray type="Float32" Name="velocity[0]" NumberOfComponents="1" format="ascii">
          -5.31094e-10 3.59105e-08 1.9903e-10 -2.89641e-09 -3.51982e-10 -1.368e-09 -3.41433e-10 1.30405e-09 2.07198e-09 -2.84446e-10 -1.8614e-09 -2.58765e-09
          -1.74926e-09 -5.71864e-10 -2.64991e-09 -7.66138e-09 1.0989e-07 4.95757e-10 -1.49198e-08 -7.74966e-13 1.74681e-09 8.27076e-09 5.67762e-09 4.63016e-09
          -2.18161e-09 -3.89567e-09 -1.10782e-08 -6.79444e-09 -1.76008e-09 -7.03185e-09 -1.67128e-08 1.61413e-07 1.16631e-09 5.91221e-09 5.64496e-10 5.10894e-09
          1.49767e-08 1.07355e-08 2.66085e-09 -5.70999e-09 -4.64432e-09 -2.77479e-08 -9.71959e-09 -3.76486e-09 -1.05484e-08 -1.60698e-08 1.76712e-07 6.95361e-09
          8.40132e-08 -1.25106e-09 -6.70387e-09 -1.92149e-09 2.42794e-09 -3.6917e-09 -1.28429e-08 -5.92758e-09 -4.76014e-08 -6.88977e-09 -5.5094e-09 -1.44116e-08
          -9.03995e-08 -3.15533e-08 -2.70122e-10 -1.19827e-07 -1.40487e-08 -5.10544e-08 -5.41014e-08 -3.85232e-08 -6.67945e-09 -1.32791e-08 -8.32657e-09 -8.07137e-08
          -3.47976e-09 -5.05051e-09 -1.77852e-08 -1.76606e-07 -2.19513e-07 -7.76218e-09 -2.59617e-07 -3.26866e-08 -1.74291e-07 -1.02158e-07 -7.4533e-08 -4.91596e-09
          -5.98073e-09 -1.27323e-08 -1.1785e-07 -2.04908e-09 -4.02386e-09 -2.00617e-08 -1.77311e-07 -1.90641e-07 -2.38728e-09 -8.74137e-08 -3.31061e-08 -3.25702e-07
          -9.57325e-08 -9.4051e-08 -4.45974e-09 -2.76798e-09 -1.58501e-08 -1.44176e-07 -1.80315e-09 -3.97711e-09 -2.16456e-08 -1.61213e-07 -1.74865e-07 -2.00853e-09
          -1.64294e-08 -2.09358e-08 -3.86302e-07 -4.58686e-08 -1.63629e-07 -5.31249e-09 -2.48372e-09 -1.8328e-08 -1.63825e-07 -1.51789e-09 -4.11233e-09 -2.3437e-08
          -1.45476e-07 -1.576e-07 -2.30169e-09 -2.53449e-09 -1.36852e-08 -3.68422e-07 -8.99424e-09 -2.67413e-07 -5.42992e-09 -3.05039e-09 -3.16266e-08 -1.60902e-07
          -1.47371e-09 -3.72839e-09 -2.58009e-08 -1.18943e-07 -1.44587e-07 -9.53032e-09 -9.47941e-10 -1.57654e-08 -3.24736e-07 -3.57676e-09 -3.66797e-07 -5.57948e-09
          -3.53065e-09 -5.44175e-08 -1.38065e-07 -2.36881e-09 -3.12799e-09 -2.81659e-08 -8.83544e-08 -1.37665e-07 -2.05028e-08 -1.8721e-09 -2.59821e-08 -2.81674e-07
          -1.65099e-09 -4.34623e-07 -1.11158e-08 -5.0172e-09 -7.01963e-08 -1.12672e-07 -5.65532e-09 -3.45681e-09 -3.03198e-08 -7.02406e-08 -1.32105e-07 -2.69351e-08
          -1.46872e-09 -3.69996e-08 -2.55045e-07 -1.3724e-09 -4.51723e-07 -2.09253e-08 -1.03188e-08 -7.64736e-08 -8.10676e-08 -1.39872e-08 -6.19145e-09 -3.26911e-08
          -6.24093e-08 -1.3162e-07 -2.4164e-08 -2.71456e-09 -3.38229e-08 -2.34749e-07 -1.88601e-09 -4.6529e-07 -4.39133e-08 -1.20662e-08 -7.26362e-08 -3.71768e-08
          -2.96504e-08 -1.41052e-08 -3.42797e-08 -5.81003e-08 -1.34531e-07 -1.56063e-08 -6.73438e-09 -2.5655e-08 -2.22086e-07 -1.9604e-09 -4.73567e-07 -8.0314e-08
          -1.68611e-08 -4.48132e-08 -9.22371e-09 -3.77734e-08 -2.84291e-08 -3.31467e-08 -5.78409e-08 -1.14927e-07 -1.25858e-08 -1.00822e-08 -2.97696e-08 -2.24022e-07
          -1.45092e-09 -4.55202e-07 -1.02574e-07 -2.68249e-08 -1.96266e-08 -5.04579e-09 -3.4992e-08 -4.47816e-08 -2.97201e-08 -6.26872e-08 -7.86111e-08 -1.24398e-08
          -8.85838e-09 -3.85126e-08 -2.32095e-07 -1.84681e-09 -3.95191e-07 -1.08711e-07 -3.35363e-08 -1.04517e-08 -5.85758e-09 -3.8668e-08 -6.59702e-08 -2.50177e-08
          -6.62997e-08 -5.44699e-08 -8.94154e-09 -7.33639e-09 -5.5964e-08 -2.09271e-07 -3.46835e-09 -3.16121e-07 -1.10724e-07 -5.13928e-08 -3.93594e-09 -5.45747e-09
          -3.16108e-08 -9.79588e-08 -1.98808e-08 -6.65466e-08 -4.21376e-08 -3.50888e-09 -4.65682e-09 -8.20061e-08 -1.50794e-07 -5.18829e-09 -2.44469e-07 -1.21369e-07
          -7.95985e-08 -2.73352e-09 -3.64719e-09 -2.04763e-08 -1.28077e-07 -1.5533e-08 -6.05136e-08 -3.00242e-08 -1.7802e-09 -1.59754e-09 -1.00221e-07 -9.50768e-08
          -5.44386e-09 -1.771e-07 -1.22831e-07 -1.27116e-07 -1.58371e-09 -3.00061e-09 -2.67865e-08 -1.46475e-07 -1.36177e-08 -5.0429e-08 -2.02564e-08 -1.6593e-09
          -7.05743e-10 -1.05699e-07 -5.35925e-08 -4.5249e-09 -1.30344e-07 -8.00712e-08 -2.22673e-07 -2.80054e-09 -4.28278e-09 -3.98174e-08 -1.55452e-07 -1.4681e-08
          -3.86043e-08 -1.36311e-08 -1.47558e-09 -1.77272e-10 -9.7671e-08 -2.78182e-08 -3.86809e-09 -1.02917e-07 -3.37021e-08 -3.10319e-07 -4.40957e-09 -7.90153e-09
          -4.84057e-08 -1.62573e-07 -1.68951e-08 -2.4294e-08 -6.9547e-09 -2.31539e-09 -8.90319e-10 -7.19531e-08 -1.88452e-08 -3.78941e-09 -9.78521e-08 -1.83655e-08
          -3.28692e-07 -4.02109e-09 -1.51622e-08 -5.30031e-08 -1.69818e-07 -2.09896e-08 -1.13443e-08 -2.78192e-09 -1.04279e-09 -5.87943e-10 -3.58693e-08 -1.40609e-08
          -3.11912e-09 -1.03805e-07 -1.48448e-08 -2.83495e-07 -5.57889e-09 -2.61334e-08 -6.96356e-08 -1.77055e-07 -2.74317e-08 -3.00646e-09 -6.27048e-10 2.29973e-10
          8.61396e-11 -8.46279e-09 -5.36623e-09 -1.14364e-09 -5.3007e-08 -6.92159e-09 -1.22623e-07 -3.68147e-09 -1.5855e-08 -4.16164e-08 -9.10308e-08 -1.5408e-08
        </DataArray>
        <DataArray type="Float32" Name="velocity[1]" NumberOfComponents="1" format="ascii">
          8.25383e-26 5.72171e-24 9.29394e-26 -4.50136e-25 5.47022e-26 0 5.30626e-26 -1.67039e-25 4.88397e-26 5.55823e-24 -3.60499e-24 3.91715e-26
          2.37641e-24 -9.45758e-25 4.11627e-25 1.02559e-24 5.79652e-24 8.54438e-26 -1.41844e-24 -1.84539e-25 7.2623e-24 1.20676e-24 3.32506e-25 -6.87407e-24
          -1.39744e-25 0 -4.01516e-26 4.42105e-26 1.04712e-28 2.69178e-25 3.81101e-25 -8.48627e-24 -1.73711e-24 4.65598e-24 -1.87643e-25 0
          2.79193e-25 -3.53482e-25 -3.81617e-25 0 6.88221e-24 -1.07403e-23 0 1.11027e-24 -2.77796e-25 -9.2923e-25 1.26727e-23 -1.55154e-24
          -8.08465e-24 3.88075e-25 9.85517e-24 -2.10023e-23 2.48793e-23 -3.84587e-24 1.11736e-24 3.39266e-24 -4.49888e-24 3.09121e-24 -1.2931e-24 9.69368e-25
          -9.95637e-26 -6.53072e-23 6.06566e-24 1.10863e-23 -4.28045e-25 -5.50172e-24 1.24246e-25 -1.05346e-25 -3.29133e-26 -6.37226e-24 4.06511e-24 -7.46866e-24
          -3.41455e-28 1.26418e-25 -1.48264e-24 -1.33878e-25 6.885e-24 -6.61327e-25 7.76997e-24 1.93315e-25 -1.43599e-23 0 -1.08132e-25 -4.20091e-26
          3.32864e-25 -4.24193e-25 5.42484e-24 -1.43884e-24 8.51453e-25 1.48214e-24 -1.09571e-24 1.27296e-24 0 9.62142e-24 -9.80056e-25 -2.63521e-23
          -1.20018e-25 -9.31479e-26 -3.27203e-24 4.35812e-28 -5.36781e-28 -8.08532e-28 3.67438e-26 -2.42933e-28 -1.63519e-24 -1.73785e-25 1.28613e-23 1.41558e-24
          3.31738e-24 -7.67758e-26 3.05355e-23 -5.72715e-26 -6.52469e-26 -1.41534e-25 -6.47264e-26 -3.73462e-24 -1.23035e-23 -4.48726e-28 -3.65916e-25 1.91359e-24
          -1.3749e-24 -9.21633e-24 -9.14804e-26 -1.80964e-24 -2.80116e-25 5.70218e-24 0 0 -8.49894e-25 5.16387e-28 1.10355e-24 2.90798e-24
          -9.84384e-28 5.45355e-26 -6.48814e-29 -1.07049e-23 1.00982e-24 1.28756e-24 -1.69323e-25 -1.19917e-24 5.57268e-24 -9.97709e-24 7.9312e-24 8.33615e-25
          -5.0966e-26 -7.57237e-25 3.09143e-24 -8.29881e-25 0 -2.09616e-24 4.30815e-24 9.25922e-26 6.19624e-25 -1.77796e-25 2.43457e-24 4.5571e-28
          -5.6682e-24 5.23191e-24 7.8538e-25 1.81011e-25 3.96254e-25 8.10523e-24 1.86585e-24 -2.995e-25 1.4975e-25 -4.96518e-24 1.07623e-24 -3.82445e-25
          -1.96868e-27 -3.35171e-25 -1.89929e-23 3.00552e-26 4.84817e-26 -1.1915e-24 -6.43902e-25 -3.54081e-25 3.09454e-24 -1.93686e-24 1.08677e-24 -2.18919e-25
          4.73301e-24 1.00003e-23 0 -1.92366e-25 -1.27994e-24 1.51126e-24 4.93699e-26 2.06716e-24 -2.83284e-24 -9.84415e-28 -5.18465e-24 -1.00853e-24
          1.58721e-24 -6.47523e-25 -2.57734e-28 -4.38445e-25 6.73957e-28 8.59853e-25 -8.64458e-25 7.64408e-28 1.63671e-23 -3.80141e-26 -7.75016e-25 3.59626e-24
          1.84952e-24 5.18561e-24 2.78474e-24 -5.08102e-24 6.83604e-28 -2.47344e-24 -4.29482e-24 -7.40937e-24 -3.25856e-28 7.39481e-25 6.28849e-25 9.35571e-28
          -4.0973e-26 -5.96859e-24 1.73045e-24 0 0 4.24939e-25 4.04294e-24 -5.51621e-25 4.6192e-24 0 2.6039e-24 0
          -5.49292e-25 7.30455e-25 7.17179e-28 1.02499e-25 -7.24942e-24 -2.27402e-28 -2.22131e-28 -2.91242e-28 4.31009e-24 1.55843e-28 -1.27862e-24 -2.14493e-24
          4.29858e-28 1.14764e-24 -1.37429e-28 -4.20027e-26 1.98236e-24 -1.07043e-23 0 -1.10808e-23 0 3.7524e-28 3.14854e-24 -3.89567e-24
          -1.77782e-24 1.37059e-28 1.34695e-24 0 3.65866e-24 0 5.91263e-25 1.9672e-24 5.16106e-24 1.17546e-25 -6.0962e-24 -5.43455e-24
          -2.21993e-24 1.84801e-25 5.45144e-26 8.40386e-29 -1.79175e-24 -1.06705e-24 4.31746e-24 -2.14227e-24 2.36651e-24 -1.96222e-24 7.65881e-25 9.19291e-24
          -7.77884e-26 -4.37346e-24 1.02602e-23 5.61094e-24 -3.37723e-24 7.33003e-26 9.33228e-25 -3.85777e-28 1.0493e-24 4.47623e-29 -3.90307e-24 8.45611e-25
          -1.79573e-24 1.70869e-25 -2.83769e-24 -1.29828e-25 -5.78646e-24 -5.21473e-24 9.688e-24 2.75673e-25 3.60958e-24 1.09192e-24 -3.66263e-25 -8.663e-25
          -1.04003e-24 6.26527e-25 0 -3.93955e-26 -1.33309e-24 4.63141e-24 -8.14195e-24 8.14246e-24 -5.85028e-24 1.46824e-27 0 0
          2.42899e-25 -6.84258e-28 1.39339e-24 -1.18398e-24 -1.24413e-24 1.14806e-24 -1.92848e-24 -9.22522e-25 -1.35099e-24 2.45025e-26 5.82212e-25 -3.82235e-24
          1.37193e-23 -2.60497e-25 -6.56621e-24 4.71207e-25 9.51426e-25 -2.42153e-29 -8.28412e-25 -1.44673e-28 -1.62929e-28 1.17591e-25 -2.94426e-24 5.17515e-25
          -1.29279e-25 1.0422e-23 -4.32392e-24 0 -2.77262e-25 -8.66242e-25 6.69073e-24 -7.79031e-25 0 -4.67382e-25 -1.65085e-28 -3.80493e-25
          6.45794e-25 -1.31496e-24 -2.19593e-24 -3.56096e-25 -2.75742e-24 1.0757e-24 -2.98087e-23 0 2.97894e-23 -2.18199e-23 1.80065e-23 4.52987e-25
        </DataArray>
        <DataArray type="Float32" Name="velocity[2]" NumberOfComponents="1" format="ascii">
          -5.13555e-11 4.66658e-09 -3.34618e-09 -3.67824e-09 -3.00106e-09 -3.046e-09 -2.76021e-09 -2.47885e-09 -2.47756e-09 -2.97105e-09 -3.08133e-09 -2.89871e-09
          -2.44112e-09 -1.98122e-09 -1.351e-09 -9.03886e-10 1.84065e-08 -2.70904e-09 -4.89829e-09 -1.7894e-09 -1.6828e-09 -9.50492e-10 -1.7116e-09 -1.98217e-09
          -3.11103e-09 -3.29788e-09 -4.16183e-09 -2.79809e-09 -1.56883e-09 -1.81777e-09 -2.77174e-09 2.81533e-08 -7.81063e-10 -1.4199e-09 -3.77733e-09 -2.85721e-09
          -9.6966e-10 -1.69096e-09 -2.99155e-09 -4.19938e-09 -3.85038e-09 -7.19565e-09 -3.35871e-09 -2.08623e-09 -2.45538e-09 -3.02537e-09 3.06725e-08 2.33557e-10
          1.1043e-08 -6.21666e-09 -6.51492e-09 -4.73857e-09 -3.2816e-09 -3.81555e-09 -4.93375e-09 -3.40996e-09 -1.0129e-08 -2.55694e-09 -2.41771e-09 -3.23414e-09
          -1.07361e-08 8.35049e-10 -1.04104e-09 -2.90722e-08 -1.33202e-08 -1.75676e-08 -1.54714e-08 -1.08668e-08 -4.43708e-09 -5.78262e-09 -4.94446e-09 -1.61411e-08
          -1.1435e-09 -1.6193e-09 -3.56828e-09 -3.04987e-08 -3.84773e-08 -2.57891e-09 -5.28728e-08 -1.78889e-08 -3.8145e-08 -2.08748e-08 -1.55375e-08 -3.11788e-09
          -3.40882e-09 -4.51289e-09 -2.20896e-08 -9.149e-10 -1.32996e-09 -3.86527e-09 -3.17358e-08 -3.4819e-08 -1.87916e-09 -1.98184e-08 -1.35316e-08 -6.24982e-08
          -1.94142e-08 -1.91555e-08 -2.91126e-09 -2.58802e-09 -4.89677e-09 -2.6706e-08 -7.91871e-10 -1.1317e-09 -4.01817e-09 -2.88874e-08 -3.21261e-08 -1.97491e-09
          -4.99452e-09 -6.55194e-09 -7.12109e-08 -1.20374e-08 -3.21813e-08 -2.7487e-09 -2.20591e-09 -4.85154e-09 -2.99895e-08 -1.0175e-09 -1.51406e-09 -4.52952e-09
          -2.60863e-08 -2.89934e-08 -1.89405e-09 -2.00472e-09 -4.18736e-09 -6.75745e-08 -5.06428e-09 -4.94383e-08 -1.97997e-09 -1.57419e-09 -5.8947e-09 -2.85358e-08
          -9.57608e-10 -1.382e-09 -4.94042e-09 -2.21603e-08 -2.80244e-08 -3.74068e-09 -1.5241e-09 -3.83042e-09 -5.93466e-08 -4.01596e-09 -6.67415e-08 -1.6566e-09
          -1.25287e-09 -9.47995e-09 -2.43055e-08 -1.15794e-09 -1.30431e-09 -5.36333e-09 -1.63379e-08 -2.58671e-08 -4.94651e-09 -1.34477e-09 -5.29908e-09 -5.08159e-08
          -2.19861e-09 -7.81096e-08 -2.67932e-09 -1.25425e-09 -1.24338e-08 -2.03709e-08 -2.02321e-09 -1.34804e-09 -5.66757e-09 -1.28103e-08 -2.43168e-08 -5.73239e-09
          -1.0289e-09 -7.02408e-09 -4.56976e-08 -1.45607e-09 -8.08545e-08 -4.59641e-09 -2.27467e-09 -1.36431e-08 -1.55031e-08 -4.49095e-09 -2.39113e-09 -6.23408e-09
          -1.11036e-08 -2.3258e-08 -4.61336e-09 -1.22124e-09 -7.08414e-09 -4.34047e-08 -2.78602e-09 -8.41363e-08 -8.38508e-09 -1.77107e-09 -1.29205e-08 -8.49274e-09
          -7.93829e-09 -3.56081e-09 -6.10099e-09 -1.0431e-08 -2.40957e-08 -3.42071e-09 -2.00687e-09 -5.19989e-09 -3.99654e-08 -1.30214e-09 -8.45859e-08 -1.42979e-08
          -1.73305e-09 -7.76153e-09 -3.10142e-09 -8.49988e-09 -5.56376e-09 -5.40639e-09 -1.00282e-08 -2.09009e-08 -3.80449e-09 -3.30651e-09 -6.53382e-09 -4.03419e-08
          -8.7279e-10 -8.12474e-08 -1.9178e-08 -5.46464e-09 -4.29111e-09 -1.95239e-09 -7.30581e-09 -7.78261e-09 -4.53581e-09 -1.09013e-08 -1.43942e-08 -3.60364e-09
          -3.10244e-09 -8.17124e-09 -4.19082e-08 -1.14231e-09 -7.17284e-08 -2.23332e-08 -8.79679e-09 -4.94287e-09 -4.43278e-09 -9.84991e-09 -1.21374e-08 -3.54732e-09
          -1.16021e-08 -9.79665e-09 -2.40036e-09 -2.36673e-09 -1.02479e-08 -3.78135e-08 -2.7107e-09 -5.86807e-08 -2.33292e-08 -1.23161e-08 -3.43244e-09 -3.837e-09
          -9.3094e-09 -1.86727e-08 -2.65597e-09 -1.18064e-08 -7.82154e-09 -1.46549e-09 -2.02357e-09 -1.50965e-08 -2.8029e-08 -3.85964e-09 -4.70626e-08 -2.57701e-08
          -1.71928e-08 -3.10508e-09 -3.31431e-09 -6.27205e-09 -2.33039e-08 -2.138e-09 -1.09987e-08 -6.31189e-09 -1.63357e-09 -1.54866e-09 -1.8682e-08 -1.8596e-08
          -3.88818e-09 -3.49207e-08 -2.66541e-08 -2.66326e-08 -3.20252e-09 -3.51549e-09 -7.33759e-09 -2.68969e-08 -2.36273e-09 -9.23282e-09 -4.38529e-09 -1.30456e-09
          -1.24454e-09 -1.97683e-08 -1.1403e-08 -3.61392e-09 -2.63076e-08 -1.99524e-08 -4.46177e-08 -3.24133e-09 -3.28513e-09 -8.9774e-09 -2.85476e-08 -2.98099e-09
          -7.25339e-09 -3.49753e-09 -1.50296e-09 -1.20859e-09 -1.88448e-08 -7.33582e-09 -3.46995e-09 -2.1177e-08 -9.97612e-09 -5.85087e-08 -3.56357e-09 -4.07736e-09
          -1.10034e-08 -3.01943e-08 -3.32457e-09 -4.79177e-09 -2.37451e-09 -1.66886e-09 -1.3749e-09 -1.4797e-08 -6.4145e-09 -3.82342e-09 -2.03056e-08 -6.34088e-09
          -6.14904e-08 -4.53152e-09 -6.18632e-09 -1.23327e-08 -3.23558e-08 -4.72051e-09 -2.35586e-09 -1.27795e-09 -1.17806e-09 -1.26628e-09 -8.53606e-09 -5.8563e-09
          -4.10453e-09 -2.18222e-08 -6.13674e-09 -5.50979e-08 -7.50753e-09 -1.06836e-08 -1.71131e-08 -3.43124e-08 -5.96531e-09 -7.3063e-10 -5.42958e-10 -4.03421e-10
          -4.04755e-10 -2.35945e-09 -2.51536e-09 -2.05184e-09 -1.26411e-08 -6.34369e-09 -3.20641e-08 -1.37445e-08 -1.20301e-08 -1.37047e-08 -1.90927e-08 -3.20273e-09
        </DataArray>
        <DataArray type="Float32" Name="z[0]" NumberOfComponents="1" format="ascii">
          0.150578 0.150579 0.15058 0.150582 0.150582 0.150583 0.150584 0.150585 0.150585 0.150586 0.150587 0.150588
          0.150589 0.150591 0.150596 0.150581 0.150582 0.150583 0.150585 0.150586 0.150587 0.150587 0.150588 0.150588
          0.150589 0.15059 0.150591 0.150593 0.150595 0.150599 0.150584 0.150585 0.150587 0.150588 0.150589 0.15059
          0.15059 0.150591 0.150592 0.150593 0.150593 0.150595 0.150596 0.150598 0.150602 0.150588 0.150589 0.15059
          0.150591 0.150592 0.150593 0.150594 0.150594 0.150595 0.150596 0.150597 0.150598 0.150599 0.150601 0.150605
          0.150591 0.150592 0.150593 0.150594 0.150595 0.150596 0.150597 0.150597 0.150598 0.150599 0.1506 0.150601
          0.150602 0.150604 0.150609 0.150594 0.150595 0.150596 0.150597 0.150598 0.150599 0.1506 0.19026 0.150601