<?xml version="1.0"?>
<VTKFile type="UnstructuredGrid" version="0.1" byte_order="LittleEndian">
  <UnstructuredGrid>
    <Piece NumberOfCells="360" NumberOfPoints="800">
      <CellData Scalars="pressure[0]">
        <DataArray type="Float32" Name="pressure[0]" NumberOfComponents="1" format="ascii">
          2.08689e+07 2.08834e+07 2.1376e+07 2.18977e+07 2.22867e+07 2.27493e+07 2.28984e+07 2.29518e+07 2.30167e+07 2.30876e+07 2.33083e+07 2.36756e+07
          2.39484e+07 2.46159e+07 2.53893e+07 2.09126e+07 2.09271e+07 2.14696e+07 2.20089e+07 2.24406e+07 2.29304e+07 2.30412e+07 2.30824e+07 2.315e+07
          2.32322e+07 2.35489e+07 2.39234e+07 2.41387e+07 2.48159e+07 2.55569e+07 2.09565e+07 2.09709e+07 2.15405e+07 2.2145e+07 2.25271e+07 2.29883e+07
          2.31242e+07 2.31868e+07 2.32791e+07 2.33977e+07 2.38357e+07 2.427e+07 2.44674e+07 2.50757e+07 2.5771e+07 2.10008e+07 2.10157e+07 2.14114e+07
          2.22752e+07 2.26472e+07 2.30914e+07 2.32162e+07 2.32733e+07 2.34272e+07 2.36298e+07 2.42201e+07 2.46922e+07 2.48691e+07 2.53806e+07 2.60384e+07
          2.10882e+07 2.11136e+07 1.97713e+07 2.23655e+07 2.28148e+07 2.33058e+07 2.33902e+07 2.34551e+07 2.37268e+07 2.41444e+07 2.46789e+07 2.5091e+07
          2.52636e+07 2.57226e+07 2.63002e+07 2.12814e+07 2.13244e+07 2.18127e+07 2.2746e+07 2.33708e+07 2.39412e+07 2.40055e+07 2.40637e+07 2.43097e+07
          2.4733e+07 2.51973e+07 2.54422e+07 2.56275e+07 2.60674e+07 2.65934e+07 2.15264e+07 2.15759e+07 2.24175e+07 2.32634e+07 2.40076e+07 2.45579e+07
          2.46381e+07 2.47235e+07 2.48695e+07 2.52922e+07 2.56489e+07 2.57456e+07 2.59232e+07 2.64379e+07 2.70015e+07 2.18752e+07 2.19286e+07 2.29562e+07
          2.38064e+07 2.46373e+07 2.5131e+07 2.51903e+07 2.52487e+07 2.53882e+07 2.57132e+07 2.59409e+07 2.60116e+07 2.62521e+07 2.68167e+07 2.75647e+07
          2.23801e+07 2.24422e+07 2.34357e+07 2.4284e+07 2.52976e+07 2.56357e+07 2.57466e+07 2.58564e+07 2.59539e+07 2.61347e+07 2.62371e+07 2.62645e+07
          2.65137e+07 2.72401e+07 2.81254e+07 2.29944e+07 2.30951e+07 2.37347e+07 2.43618e+07 2.58483e+07 2.60758e+07 2.63196e+07 2.65424e+07 2.65538e+07
          2.65653e+07 2.6591e+07 2.66188e+07 2.68826e+07 2.76624e+07 2.84579e+07 2.39084e+07 2.40388e+07 2.4345e+07 2.47849e+07 2.62285e+07 2.6395e+07
          2.67819e+07 2.71099e+07 2.70196e+07 2.69708e+07 2.69469e+07 2.69856e+07 2.72108e+07 2.80084e+07 2.87068e+07 2.45939e+07 2.46412e+07 2.48738e+07
          2.52535e+07 2.6594e+07 2.67056e+07 2.72489e+07 2.76853e+07 2.77256e+07 2.73526e+07 2.7308e+07 2.73509e+07 2.75897e+07 2.83716e+07 2.94723e+07
          2.52065e+07 2.54336e+07 2.55006e+07 2.5861e+07 2.71192e+07 2.72357e+07 2.78175e+07 2.8321e+07 2.84194e+07 2.8358e+07 2.82613e+07 2.85005e+07
          2.90398e+07 2.99742e+07 3.01906e+07 2.63429e+07 2.63997e+07 2.62648e+07 2.66508e+07 2.79829e+07 2.80986e+07 2.85794e+07 2.89552e+07 2.90252e+07
          2.90987e+07 2.91499e+07 2.96385e+07 3.03177e+07 3.08599e+07 3.06228e+07 2.716e+07 2.71587e+07 2.72072e+07 2.83177e+07 2.88446e+07 2.89096e+07
          2.92273e+07 2.94557e+07 2.95073e+07 2.95878e+07 2.97444e+07 3.05207e+07 3.11242e+07 3.13e+07 3.11387e+07 2.78712e+07 2.78919e+07 2.79923e+07
          2.90988e+07 2.93513e+07 2.94069e+07 2.96313e+07 2.97782e+07 2.98278e+07 2.99027e+07 3.02009e+07 3.09408e+07 3.14908e+07 3.1802e+07 3.1625e+07
          2.86044e+07 2.8654e+07 2.90276e+07 2.96343e+07 2.97613e+07 2.97993e+07 2.99139e+07 3.00151e+07 3.00633e+07 3.01269e+07 3.05237e+07 3.14047e+07
          3.19975e+07 3.23011e+07 3.20699e+07 2.91933e+07 2.92532e+07 2.96316e+07 2.99186e+07 3.00438e+07 3.00879e+07 3.01774e+07 3.0253e+07 3.03032e+07
          3.03612e+07 3.08495e+07 3.17809e+07 3.23868e+07 3.26345e+07 3.25129e+07 2.95103e+07 2.9577e+07 2.98001e+07 3.01237e+07 3.02905e+07 3.03381e+07
          3.0417e+07 3.04839e+07 3.053e+07 3.05858e+07 3.11229e+07 3.21528e+07 3.27734e+07 3.29582e+07 3.31247e+07 2.97632e+07 2.9822e+07 3.0022e+07
          3.03435e+07 3.05076e+07 3.05558e+07 3.06326e+07 3.06962e+07 3.07426e+07 3.08048e+07 3.13372e+07 3.24725e+07 3.31546e+07 3.32994e+07 3.37064e+07
          2.99751e+07 3.00419e+07 3.02006e+07 3.04977e+07 3.07017e+07 3.07549e+07 3.08377e+07 3.09053e+07 3.09679e+07 3.10468e+07 3.18001e+07 3.30148e+07
          3.35085e+07 3.36618e+07 3.41601e+07 3.01779e+07 3.02473e+07 3.03885e+07 3.06786e+07 3.08864e+07 3.0945e+07 3.10414e+07 3.11191e+07 3.12008e+07
          3.12921e+07 3.23092e+07 3.35716e+07 3.38754e+07 3.40623e+07 3.4602e+07 3.03625e+07 3.04258e+07 3.0596e+07 3.09016e+07 3.10712e+07 3.11387e+07
          3.12526e+07 3.13431e+07 3.1449e+07 3.15631e+07 3.27415e+07 3.4032e+07 3.42924e+07 3.45019e+07 3.49197e+07 3.05309e+07 3.05911e+07 3.07403e+07
          3.10465e+07 3.12639e+07 3.13332e+07 3.14617e+07 3.15673e+07 3.16969e+07 3.18512e+07 3.32187e+07 3.44328e+07 3.4722e+07 3.49117e+07 3.52009e+07
        </DataArray>
        <DataArray type="Float32" Name="pressure[1]" NumberOfComponents="1" format="ascii">
          2.08689e+07 2.08834e+07 2.1376e+07 2.18977e+07 2.22867e+07 2.27493e+07 2.28984e+07 2.29518e+07 2.30167e+07 2.30876e+07 2.33083e+07 2.36756e+07
          2.39484e+07 2.46159e+07 2.53893e+07 2.09126e+07 2.09271e+07 2.14696e+07 2.20089e+07 2.24406e+07 2.29304e+07 2.30412e+07 2.30824e+07 2.315e+07
          2.32322e+07 2.35489e+07 2.39234e+07 2.41387e+07 2.48159e+07 2.55569e+07 2.09565e+07 2.09709e+07 2.15405e+07 2.2145e+07 2.25271e+07 2.29883e+07
          2.31242e+07 2.31868e+07 2.32791e+07 2.33977e+07 2.38357e+07 2.427e+07 2.44674e+07 2.50757e+07 2.5771e+07 2.10008e+07 2.10157e+07 2.14114e+07
          2.22752e+07 2.26472e+07 2.30914e+07 2.32162e+07 2.32733e+07 2.34272e+07 2.36298e+07 2.42201e+07 2.46922e+07 2.48691e+07 2.53806e+07 2.60384e+07
          2.10882e+07 2.11136e+07 1.97713e+07 2.23655e+07 2.28148e+07 2.33058e+07 2.33902e+07 2.34551e+07 2.37268e+07 2.41444e+07 2.46789e+07 2.5091e+07
          2.52636e+07 2.57226e+07 2.63002e+07 2.12814e+07 2.13244e+07 2.18127e+07 2.2746e+07 2.33708e+07 2.39412e+07 2.40055e+07 2.40637e+07 2.43097e+07
          2.4733e+07 2.51973e+07 2.54422e+07 2.56275e+07 2.60674e+07 2.65934e+07 2.15264e+07 2.15759e+07 2.24175e+07 2.32634e+07 2.40076e+07 2.45579e+07
          2.46381e+07 2.47235e+07 2.48695e+07 2.52922e+07 2.56489e+07 2.57456e+07 2.59232e+07 2.64379e+07 2.70015e+07 2.18752e+07 2.19286e+07 2.29562e+07
          2.38064e+07 2.46373e+07 2.5131e+07 2.51903e+07 2.52487e+07 2.53882e+07 2.57132e+07 2.59409e+07 2.60116e+07 2.62521e+07 2.68167e+07 2.75647e+07
          2.23801e+07 2.24422e+07 2.34357e+07 2.4284e+07 2.52976e+07 2.56357e+07 2.57466e+07 2.58564e+07 2.59539e+07 2.61347e+07 2.62371e+07 2.62645e+07
          2.65137e+07 2.72401e+07 2.81254e+07 2.29944e+07 2.30951e+07 2.37347e+07 2.43618e+07 2.58483e+07 2.60758e+07 2.63196e+07 2.65424e+07 2.65538e+07
          2.65653e+07 2.6591e+07 2.66188e+07 2.68826e+07 2.76624e+07 2.84579e+07 2.39084e+07 2.40388e+07 2.4345e+07 2.47849e+07 2.62285e+07 2.6395e+07
          2.67819e+07 2.71099e+07 2.70196e+07 2.69708e+07 2.69469e+07 2.69856e+07 2.72108e+07 2.80084e+07 2.87068e+07 2.45939e+07 2.46412e+07 2.48738e+07
          2.52535e+07 2.6594e+07 2.67056e+07 2.72489e+07 2.76853e+07 2.77256e+07 2.73526e+07 2.7308e+07 2.73509e+07 2.75897e+07 2.83716e+07 2.94723e+07
          2.52065e+07 2.54336e+07 2.55006e+07 2.5861e+07 2.71192e+07 2.72357e+07 2.78175e+07 2.8321e+07 2.84194e+07 2.8358e+07 2.82613e+07 2.85005e+07
          2.90398e+07 2.99742e+07 3.01906e+07 2.63429e+07 2.63997e+07 2.62648e+07 2.66508e+07 2.79829e+07 2.80986e+07 2.85794e+07 2.89552e+07 2.90252e+07
          2.90987e+07 2.91499e+07 2.96385e+07 3.03177e+07 3.08599e+07 3.06228e+07 2.716e+07 2.71587e+07 2.72072e+07 2.83177e+07 2.88446e+07 2.89096e+07
          2.92273e+07 2.94557e+07 2.95073e+07 2.95878e+07 2.97444e+07 3.05207e+07 3.11242e+07 3.13e+07 3.11387e+07 2.78712e+07 2.78919e+07 2.79923e+07
          2.90988e+07 2.93513e+07 2.94069e+07 2.96313e+07 2.97782e+07 2.98278e+07 2.99027e+07 3.02009e+07 3.09408e+07 3.14908e+07 3.1802e+07 3.1625e+07
          2.86044e+07 2.8654e+07 2.90276e+07 2.96343e+07 2.97613e+07 2.97993e+07 2.99139e+07 3.00151e+07 3.00633e+07 3.01269e+07 3.05237e+07 3.14047e+07
          3.19975e+07 3.23011e+07 3.20699e+07 2.91933e+07 2.92532e+07 2.96316e+07 2.99186e+07 3.00438e+07 3.00879e+07 3.01774e+07 3.0253e+07 3.03032e+07
          3.03612e+07 3.08495e+07 3.17809e+07 3.23868e+07 3.26345e+07 3.25129e+07 2.95103e+07 2.9577e+07 2.98001e+07 3.01237e+07 3.02905e+07 3.03381e+07
          3.0417e+07 3.04839e+07 3.053e+07 3.05858e+07 3.11229e+07 3.21528e+07 3.27734e+07 3.29582e+07 3.31247e+07 2.97632e+07 2.9822e+07 3.0022e+07
          3.03435e+07 3.05076e+07 3.05558e+07 3.06326e+07 3.06962e+07 3.07426e+07 3.08048e+07 3.13372e+07 3.24725e+07 3.31546e+07 3.32994e+07 3.37064e+07
          2.99751e+07 3.00419e+07 3.02006e+07 3.04977e+07 3.07017e+07 3.07549e+07 3.08377e+07 3.09053e+07 3.09679e+07 3.10468e+07 3.18001e+07 3.30148e+07
          3.35085e+07 3.36618e+07 3.41601e+07 3.01779e+07 3.02473e+07 3.03885e+07 3.06786e+07 3.08864e+07 3.0945e+07 3.10414e+07 3.11191e+07 3.12008e+07
          3.12921e+07 3.23092e+07 3.35716e+07 3.38754e+07 3.40623e+07 3.4602e+07 3.03625e+07 3.04258e+07 3.0596e+07 3.09016e+07 3.10712e+07 3.11387e+07
          3.12526e+07 3.13431e+07 3.1449e+07 3.15631e+07 3.27415e+07 3.4032e+07 3.42924e+07 3.45019e+07 3.49197e+07 3.05309e+07 3.05911e+07 3.07403e+07
          3.10465e+07 3.12639e+07 3.13332e+07 3.14617e+07 3.15673e+07 3.16969e+07 3.18512e+07 3.32187e+07 3.44328e+07 3.4722e+07 3.49117e+07 3.52009e+07
        </DataArray>
        <DataArray type="Float32" Name="pressure[2]" NumberOfComponents="1" format="ascii">
          2.08689e+07 2.08834e+07 2.1376e+07 2.18977e+07 2.22867e+07 2.27493e+07 2.28984e+07 2.29518e+07 2.30167e+07 2.30876e+07 2.33083e+07 2.36756e+07
          2.39484e+07 2.46159e+07 2.53893e+07 2.09126e+07 2.09271e+07 2.14696e+07 2.20089e+07 2.24406e+07 2.29304e+07 2.30412e+07 2.30824e+07 2.315e+07
          2.32322e+07 2.35489e+07 2.39234e+07 2.41387e+07 2.48159e+07 2.55569e+07 2.09565e+07 2.09709e+07 2.15405e+07 2.2145e+07 2.25271e+07 2.29883e+07
          2.31242e+07 2.31868e+07 2.32791e+07 2.33977e+07 2.38357e+07 2.427e+07 2.44674e+07 2.50757e+07 2.5771e+07 2.10008e+07 2.10157e+07 2.14114e+07
          2.22752e+07 2.26472e+07 2.30914e+07 2.32162e+07 2.32733e+07 2.34272e+07 2.36298e+07 2.42201e+07 2.46922e+07 2.48691e+07 2.53806e+07 2.60384e+07
          2.10882e+07 2.11136e+07 1.97713e+07 2.23655e+07 2.28148e+07 2.33058e+07 2.33902e+07 2.34551e+07 2.37268e+07 2.41444e+07 2.46789e+07 2.5091e+07
          2.52636e+07 2.57226e+07 2.63002e+07 2.12814e+07 2.13244e+07 2.18127e+07 2.2746e+07 2.33708e+07 2.39412e+07 2.40055e+07 2.40637e+07 2.43097e+07
          2.4733e+07 2.51973e+07 2.54422e+07 2.56275e+07 2.60674e+07 2.65934e+07 2.15264e+07 2.15759e+07 2.24175e+07 2.32634e+07 2.40076e+07 2.45579e+07
          2.46381e+07 2.47235e+07 2.48695e+07 2.52922e+07 2.56489e+07 2.57456e+07 2.59232e+07 2.64379e+07 2.70015e+07 2.18752e+07 2.19286e+07 2.29562e+07
          2.38064e+07 2.46373e+07 2.5131e+07 2.51903e+07 2.52487e+07 2.53882e+07 2.57132e+07 2.59409e+07 2.60116e+07 2.62521e+07 2.68167e+07 2.75647e+07
          2.23801e+07 2.24422e+07 2.34357e+07 2.4284e+07 2.52976e+07 2.56357e+07 2.57466e+07 2.58564e+07 2.59539e+07 2.61347e+07 2.62371e+07 2.62645e+07
          2.65137e+07 2.72401e+07 2.81254e+07 2.29944e+07 2.30951e+07 2.37347e+07 2.43618e+07 2.58483e+07 2.60758e+07 2.63196e+07 2.65424e+07 2.65538e+07
          2.65653e+07 2.6591e+07 2.66188e+07 2.68826e+07 2.76624e+07 2.84579e+07 2.39084e+07 2.40388e+07 2.4345e+07 2.47849e+07 2.62285e+07 2.6395e+07
          2.67819e+07 2.71099e+07 2.70196e+07 2.69708e+07 2.69469e+07 2.69856e+07 2.72108e+07 2.80084e+07 2.87068e+07 2.45939e+07 2.46412e+07 2.48738e+07
          2.52535e+07 2.6594e+07 2.67056e+07 2.72489e+07 2.76853e+07 2.77256e+07 2.73526e+07 2.7308e+07 2.73509e+07 2.75897e+07 2.83716e+07 2.94723e+07
          2.52065e+07 2.54336e+07 2.55006e+07 2.5861e+07 2.71192e+07 2.72357e+07 2.78175e+07 2.8321e+07 2.84194e+07 2.8358e+07 2.82613e+07 2.85005e+07
          2.90398e+07 2.99742e+07 3.01906e+07 2.63429e+07 2.63997e+07 2.62648e+07 2.66508e+07 2.79829e+07 2.80986e+07 2.85794e+07 2.89552e+07 2.90252e+07
          2.90987e+07 2.91499e+07 2.96385e+07 3.03177e+07 3.08599e+07 3.06228e+07 2.716e+07 2.71587e+07 2.72072e+07 2.83177e+07 2.88446e+07 2.89096e+07
          2.92273e+07 2.94557e+07 2.95073e+07 2.95878e+07 2.97444e+07 3.05207e+07 3.11242e+07 3.13e+07 3.11387e+07 2.78712e+07 2.78919e+07 2.79923e+07
          2.90988e+07 2.93513e+07 2.94069e+07 2.96313e+07 2.97782e+07 2.98278e+07 2.99027e+07 3.02009e+07 3.09408e+07 3.14908e+07 3.1802e+07 3.1625e+07
          2.86044e+07 2.8654e+07 2.90276e+07 2.96343e+07 2.97613e+07 2.97993e+07 2.99139e+07 3.00151e+07 3.00633e+07 3.01269e+07 3.05237e+07 3.14047e+07
          3.19975e+07 3.23011e+07 3.20699e+07 2.91933e+07 2.92532e+07 2.96316e+07 2.99186e+07 3.00438e+07 3.00879e+07 3.01774e+07 3.0253e+07 3.03032e+07
          3.03612e+07 3.08495e+07 3.17809e+07 3.23868e+07 3.26345e+07 3.25129e+07 2.95103e+07 2.9577e+07 2.98001e+07 3.01237e+07 3.02905e+07 3.03381e+07
          3.0417e+07 3.04839e+07 3.053e+07 3.05858e+07 3.11229e+07 3.21528e+07 3.27734e+07 3.29582e+07 3.31247e+07 2.97632e+07 2.9822e+07 3.0022e+07
          3.03435e+07 3.05076e+07 3.05558e+07 3.06326e+07 3.06962e+07 3.07426e+07 3.08048e+07 3.13372e+07 3.24725e+07 3.31546e+07 3.32994e+07 3.37064e+07
          2.99751e+07 3.00419e+07 3.02006e+07 3.04977e+07 3.07017e+07 3.07549e+07 3.08377e+07 3.09053e+07 3.09679e+07 3.10468e+07 3.18001e+07 3.30148e+07
          3.35085e+07 3.36618e+07 3.41601e+07 3.01779e+07 3.02473e+07 3.03885e+07 3.06786e+07 3.08864e+07 3.0945e+07 3.10414e+07 3.11191e+07 3.12008e+07
          3.12921e+07 3.23092e+07 3.35716e+07 3.38754e+07 3.40623e+07 3.4602e+07 3.03625e+07 3.04258e+07 3.0596e+07 3.09016e+07 3.10712e+07 3.11387e+07
          3.12526e+07 3.13431e+07 3.1449e+07 3.15631e+07 3.27415e+07 3.4032e+07 3.42924e+07 3.45019e+07 3.49197e+07 3.05309e+07 3.05911e+07 3.07403e+07
          3.10465e+07 3.12639e+07 3.13332e+07 3.14617e+07 3.15673e+07 3.16969e+07 3.18512e+07 3.32187e+07 3.44328e+07 3.4722e+07 3.49117e+07 3.52009e+07
        </DataArray>
        <DataArray type="Float32" Name="velocity[0]" NumberOfComponents="1" format="ascii">
          4.52383e-11 2.94932e-08 2.94082e-10 3.36511e-09 -1.43532e-10 -1.34807e-09 -3.17015e-10 1.3806e-09 1.94227e-09 -6.47491e-10 -2.12032e-09 -3.10631e-09
          -2.19173e-09 -6.48854e-10 -2.78124e-09 -1.19921e-09 8.52498e-08 6.07889e-10 3.00896e-09 3.26607e-10 2.045e-09 8.63374e-09 6.14917e-09 4.1014e-09
          -3.1135e-09 -4.4181e-09 -1.29822e-08 -8.04931e-09 -2.02527e-09 -7.36634e-09 -9.67497e-09 1.29678e-07 1.18961e-09 3.2753e-08 7.93762e-10 5.67326e-09
          1.54858e-08 1.20069e-08 1.60635e-09 -7.51645e-09 -5.43551e-09 -3.2279e-08 -1.1222e-08 -4.20658e-09 -1.09861e-08 -2.57859e-08 1.65485e-07 6.18109e-09
          1.18386e-07 -5.08697e-10 -5.88929e-09 -8.50762e-10 3.39521e-09 -5.87396e-09 -1.59372e-08 -7.32164e-09 -5.66802e-08 -7.92159e-09 -5.96793e-09 -1.48736e-08
          -9.48272e-08 -1.69269e-08 -9.87482e-11 -2.93443e-08 -5.49058e-09 -4.41142e-08 -5.43826e-08 -5.17009e-08 -1.28187e-08 -1.69743e-08 -1.02733e-08 -9.56135e-08
          -4.00654e-09 -5.41716e-09 -1.82023e-08 -1.6317e-07 -1.97366e-07 -6.59477e-09 -1.79396e-07 -1.19567e-08 -1.11781e-07 -8.03697e-08 -1.13864e-07 -1.33743e-08
          -8.59841e-09 -1.46249e-08 -1.35753e-07 -2.3615e-09 -4.29323e-09 -2.03765e-08 -1.64273e-07 -1.72688e-07 -2.39886e-09 -8.51415e-08 -1.35786e-08 -1.78539e-07
          -5.87956e-08 -1.74536e-07 -1.00493e-08 -3.81403e-09 -1.72015e-08 -1.57992e-07 -1.95413e-09 -4.14597e-09 -2.18473e-08 -1.49688e-07 -1.59937e-07 -2.67184e-09
          -2.62325e-08 -1.17387e-08 -2.16115e-07 -3.48123e-08 -2.535e-07 -7.22181e-09 -2.60856e-09 -1.84583e-08 -1.68302e-07 -1.55618e-09 -4.16711e-09 -2.35165e-08
          -1.3451e-07 -1.45061e-07 -2.46302e-09 -5.40902e-09 -9.66743e-09 -2.33215e-07 -1.26593e-08 -3.21843e-07 -5.4056e-09 -2.75569e-09 -2.94385e-08 -1.56025e-07
          -1.43458e-09 -3.67986e-09 -2.57491e-08 -1.08034e-07 -1.32785e-07 -8.54987e-09 -8.2804e-10 -6.9102e-09 -2.35409e-07 -4.1906e-09 -3.91389e-07 -4.51699e-09
          -3.14913e-09 -4.85701e-08 -1.26169e-07 -2.1551e-09 -3.02029e-09 -2.80008e-08 -7.84678e-08 -1.20107e-07 -1.93023e-08 -2.08515e-09 -5.94417e-09 -2.30976e-07
          -1.40698e-09 -4.56284e-07 -4.80152e-09 -4.14623e-09 -6.01931e-08 -9.48206e-08 -5.04632e-09 -3.34918e-09 -3.00326e-08 -6.73086e-08 -7.9915e-08 -3.52285e-08
          -1.90543e-09 -8.58418e-09 -2.31805e-07 -1.16491e-09 -4.98451e-07 -1.53518e-08 -5.94301e-09 -5.52305e-08 -5.62563e-08 -1.49591e-08 -7.3333e-09 -3.15329e-08
          -5.42175e-08 -6.16549e-08 -4.17939e-08 -3.99021e-09 -1.32813e-08 -2.1907e-07 -1.6757e-09 -5.11763e-07 -4.62101e-08 -7.69881e-09 -3.70773e-08 -2.13661e-08
          -2.92831e-08 -1.46424e-08 -3.21276e-08 -4.09268e-08 -8.05259e-08 -2.87675e-08 -5.32984e-09 -1.96504e-08 -2.03825e-07 -1.72397e-09 -4.84789e-07 -8.10939e-08
          -1.32238e-08 -2.02199e-08 -6.90635e-09 -3.34406e-08 -2.60855e-08 -3.07151e-08 -4.69479e-08 -7.6665e-08 -1.63995e-08 -3.87364e-09 -2.64333e-08 -2.02944e-07
          -1.22821e-09 -4.39752e-07 -9.81965e-08 -2.20008e-08 -1.3328e-08 -3.61756e-09 -3.07148e-08 -4.05033e-08 -2.73025e-08 -5.74785e-08 -6.07518e-08 -8.43703e-09
          -3.46448e-09 -3.25369e-08 -2.00952e-07 -1.5326e-09 -3.7374e-07 -1.02794e-07 -3.10789e-08 -8.1798e-09 -4.87981e-09 -3.46105e-08 -5.94119e-08 -2.28698e-08
          -6.16131e-08 -4.74332e-08 -4.1146e-09 -4.51059e-09 -4.61226e-08 -1.76017e-07 -2.9578e-09 -2.9563e-07 -1.03606e-07 -4.85124e-08 -3.44666e-09 -4.81443e-09
          -2.82297e-08 -8.80405e-08 -1.80926e-08 -6.03559e-08 -3.73746e-08 -1.75237e-09 -3.06689e-09 -6.8302e-08 -1.26757e-07 -4.52317e-09 -2.25384e-07 -1.11656e-07
          -7.3311e-08 -2.45435e-09 -3.25723e-09 -1.8323e-08 -1.14981e-07 -1.40762e-08 -5.42387e-08 -2.66653e-08 -1.13845e-09 -1.21266e-09 -8.48906e-08 -8.06842e-08
          -4.7652e-09 -1.60623e-07 -1.1146e-07 -1.1503e-07 -1.43087e-09 -2.68497e-09 -2.39492e-08 -1.31362e-07 -1.22967e-08 -4.49049e-08 -1.79449e-08 -1.37361e-09
          -5.76669e-10 -9.08188e-08 -4.60551e-08 -3.98774e-09 -1.17512e-07 -7.20481e-08 -1.99212e-07 -2.49641e-09 -3.81589e-09 -3.56119e-08 -1.3926e-07 -1.32145e-08
          -3.42918e-08 -1.20949e-08 -1.27798e-09 -1.42391e-10 -8.47215e-08 -2.41841e-08 -3.42935e-09 -9.24363e-08 -3.01367e-08 -2.76308e-07 -3.91397e-09 -7.02803e-09
          -4.33345e-08 -1.45494e-07 -1.51677e-08 -2.15618e-08 -6.167e-09 -2.04371e-09 -7.83569e-10 -6.27839e-08 -1.65089e-08 -3.35829e-09 -8.72344e-08 -1.63492e-08
          -2.92065e-07 -3.57199e-09 -1.35077e-08 -4.74313e-08 -1.51823e-07 -1.88105e-08 -1.00636e-08 -2.46556e-09 -9.21978e-10 -5.18163e-10 -3.14169e-08 -1.2355e-08
          -2.759e-09 -9.20606e-08 -1.31764e-08 -2.51616e-07 -4.95679e-09 -2.32924e-08 -6.21546e-08 -1.58135e-07 -2.45473e-08 -2.66644e-09 -5.55697e-10 2.04612e-10
          7.7356e-11 -7.43297e-09 -4.72128e-09 -1.01058e-09 -4.69221e-08 -6.13738e-09 -1.08779e-07 -3.27004e-09 -1.41304e-08 -3.71011e-08 -8.12606e-08 -1.37802e-08
        </DataArray>
        <DataArray type="Float32" Name="velocity[1]" NumberOfComponents="1" format="ascii">
          -7.03056e-27 4.67086e-24 8.16736e-26 5.22978e-25 2.23065e-26 0 4.92679e-26 -1.96917e-25 1.48335e-26 5.95323e-24 -3.81764e-24 2.20951e-26
          2.45363e-24 -9.70174e-25 4.32209e-25 2.00433e-25 4.01121e-24 7.49627e-26 -5.78329e-25 -1.45099e-25 7.7581e-24 1.38693e-24 4.58381e-25 -7.42965e-24
          -9.28409e-26 0 -2.34128e-26 2.85951e-26 7.15058e-29 2.8034e-25 1.1168e-24 -6.2426e-24 -1.39768e-24 5.2009e-24 -1.31851e-25 0
          3.53987e-25 -4.08935e-25 -4.21462e-25 0 7.31278e-24 -1.17541e-23 0 1.12908e-24 -2.82327e-25 2.82709e-24 1.0728e-23 -1.31072e-24
          -1.13834e-23 2.54443e-25 1.02988e-23 -2.35785e-23 2.74641e-23 -4.11067e-24 1.16275e-24 3.81398e-24 -4.7398e-24 2.98491e-24 -1.28812e-24 9.65936e-25
          -1.07684e-25 -6.21815e-23 5.26555e-24 1.20755e-23 -3.94201e-25 -4.42288e-24 6.90418e-26 -1.11948e-25 -4.06509e-25 -6.90829e-24 4.46111e-24 -8.40306e-24
          -4.77704e-28 1.33319e-25 -1.51211e-24 -1.3473e-25 6.09688e-24 -4.95874e-25 -7.12527e-25 1.65431e-26 -6.23421e-24 0 -6.39331e-26 2.47604e-25
          5.61216e-25 -3.78977e-25 6.90934e-24 -1.30408e-24 7.73603e-25 1.51185e-24 -9.42345e-25 1.00327e-24 0 7.07364e-24 -1.43118e-25 -1.08415e-23
          1.41545e-26 -2.84571e-26 -2.19483e-24 -2.2198e-28 -7.25063e-28 -1.75327e-27 2.02892e-26 -9.52792e-29 -1.65465e-24 -1.87293e-25 1.17291e-23 1.18964e-24
          4.47091e-24 5.87699e-27 1.42506e-23 -5.21407e-26 6.38988e-26 3.49747e-25 -5.26167e-28 -2.65513e-24 -1.23358e-23 -1.65929e-28 -3.32285e-25 1.91406e-24
          -1.37935e-24 -8.4896e-24 1.61738e-26 -1.34054e-24 -1.92854e-25 2.66498e-24 0 0 1.68535e-25 8.17861e-29 3.67074e-25 4.17389e-24
          -4.73239e-28 6.03107e-26 -1.31311e-28 -9.85264e-24 1.09397e-24 1.29882e-24 -2.27556e-25 -2.05091e-24 2.99594e-24 -5.59581e-24 5.85499e-24 -8.47964e-26
          -3.88488e-26 1.04989e-25 3.47296e-24 -7.78066e-25 0 -2.08765e-24 3.91266e-24 1.62883e-25 6.52906e-25 -1.66176e-25 1.88595e-24 2.57099e-27
          -3.63204e-24 8.47742e-24 7.50467e-26 1.16678e-25 -4.28512e-25 7.04783e-24 1.73376e-24 -2.79364e-25 1.39682e-25 -5.20288e-24 1.00484e-23 -1.82875e-24
          -9.44424e-26 -1.38357e-24 -1.8094e-23 2.99825e-26 2.32215e-24 -3.48597e-24 -1.63642e-25 1.53538e-24 3.25184e-24 -1.78746e-24 1.02071e-24 -9.38876e-26
          3.22315e-24 3.67829e-24 0 -2.76729e-25 4.03949e-25 2.14813e-24 4.928e-26 -2.45803e-25 -3.23071e-24 9.40959e-28 -2.03997e-24 -7.86377e-25
          1.08582e-24 -8.3296e-25 6.71886e-29 -8.58027e-26 4.51232e-27 8.80749e-25 1.37285e-25 -2.82374e-29 1.49121e-23 -4.16954e-26 -3.93965e-24 5.76618e-24
          -8.40372e-25 2.0384e-24 2.04679e-24 -4.21119e-24 -5.14024e-29 -2.27784e-24 -3.15943e-24 -5.282e-24 -2.58662e-27 3.79893e-25 4.68173e-25 9.23667e-28
          -3.51481e-26 -7.51649e-24 1.98303e-24 0 0 2.86952e-25 3.51401e-24 -4.47751e-25 4.24308e-24 0 1.16931e-24 0
          -3.16305e-25 4.80447e-25 6.5473e-28 8.24542e-26 -7.20273e-24 -8.56923e-29 5.21224e-29 -2.20057e-28 3.75129e-24 -3.94504e-28 -1.11426e-24 -1.96552e-24
          2.0179e-28 9.00053e-25 2.25129e-28 -6.85972e-26 1.63103e-24 -9.22424e-24 0 -9.54744e-24 0 3.16529e-29 2.77427e-24 -3.43982e-24
          -1.58124e-24 3.11902e-28 1.22307e-24 0 3.23557e-24 0 3.84951e-25 1.55379e-24 4.47746e-24 1.04158e-25 -5.98002e-24 -5.11759e-24
          -1.94013e-24 1.63847e-25 4.76114e-26 -1.0882e-28 -1.60342e-24 -9.64537e-25 3.85076e-24 -1.97399e-24 2.13907e-24 -1.73586e-24 7.62088e-25 7.76096e-24
          -6.65929e-26 -4.08443e-24 9.36172e-24 4.95034e-24 -2.9765e-24 6.51799e-26 8.33049e-25 -4.80975e-28 9.46508e-25 -2.54192e-29 -3.49831e-24 7.58936e-25
          -1.58815e-24 3.18382e-25 -2.39941e-24 -1.08415e-25 -5.23147e-24 -4.72312e-24 8.54072e-24 2.42964e-25 3.19064e-24 9.79188e-25 -3.21954e-25 -7.85827e-25
          -9.26646e-25 5.56465e-25 0 -3.61605e-26 -1.10677e-24 3.98594e-24 -7.00796e-24 7.00771e-24 -5.13092e-24 1.0235e-27 0 0
          2.21032e-25 -6.56944e-28 1.25006e-24 -1.05174e-24 -1.10576e-24 1.01958e-24 -1.71116e-24 -7.57736e-25 -1.18621e-24 2.15847e-26 4.73151e-25 -3.34996e-24
          1.21009e-23 -2.31991e-25 -5.82027e-24 4.15262e-25 8.47391e-25 -1.73148e-28 -7.35131e-25 -1.07118e-28 -9.48984e-29 1.0423e-25 -2.57234e-24 4.52782e-25
          -1.1467e-25 9.15298e-24 -3.80484e-24 0 -2.46061e-25 -7.71848e-25 5.92034e-24 -6.82502e-25 0 -4.14508e-25 -9.77962e-29 -3.37174e-25
          5.72205e-25 -1.155e-24 -1.93388e-24 -3.14123e-25 -2.4665e-24 9.53822e-25 -2.64115e-23 0 2.64288e-23 -1.94031e-23 1.60457e-23 4.02726e-25
        </DataArray>
        <DataArray type="Float32" Name="velocity[2]" NumberOfComponents="1" format="ascii">
          2.54959e-11 3.78909e-09 -2.78621e-09 -2.36436e-09 -3.09157e-09 -3.20012e-09 -2.93345e-09 -2.65566e-09 -2.70122e-09 -3.23323e-09 -3.30924e-09 -3.13995e-09
          -2.62298e-09 -2.07942e-09 -1.41757e-09 -1.02607e-10 1.39596e-08 -2.21603e-09 -1.54542e-09 -1.82694e-09 -1.75429e-09 -1.05125e-09 -1.82088e-09 -2.27708e-09
          -3.47231e-09 -3.59292e-09 -4.66311e-09 -3.1214e-09 -1.68117e-09 -1.90029e-09 -1.20609e-09 2.29767e-08 -5.85813e-10 3.3174e-09 -3.93003e-09 -2.97436e-09
          -1.11507e-09 -1.72196e-09 -3.44814e-09 -4.76595e-09 -4.2074e-09 -8.10416e-09 -3.64951e-09 -2.19499e-09 -2.54264e-09 -3.92831e-09 2.95382e-08 2.33705e-10
          1.70905e-08 -6.35106e-09 -6.70375e-09 -4.94208e-09 -3.5162e-09 -4.5528e-09 -5.77622e-09 -3.92118e-09 -1.18226e-08 -2.69368e-09 -2.48488e-09 -3.31292e-09
          -1.26672e-08 2.12383e-09 -8.44471e-10 -1.28228e-08 -1.22299e-08 -1.74567e-08 -1.68871e-08 -1.41532e-08 -5.96025e-09 -6.72032e-09 -5.58388e-09 -1.88857e-08
          -1.18532e-09 -1.65068e-09 -3.62889e-09 -2.81661e-08 -3.45215e-08 -2.13008e-09 -3.53469e-08 -8.10539e-09 -2.36945e-08 -1.66519e-08 -2.24261e-08 -4.30799e-09
          -3.70671e-09 -4.75902e-09 -2.51765e-08 -9.04274e-10 -1.32485e-09 -3.89905e-09 -2.9371e-08 -3.14426e-08 -1.55996e-09 -1.83045e-08 -7.92735e-09 -3.58071e-08
          -1.36495e-08 -3.3134e-08 -3.10518e-09 -2.16862e-09 -4.56908e-09 -2.88363e-08 -7.62756e-10 -1.12073e-09 -4.03733e-09 -2.6812e-08 -2.93392e-08 -1.85448e-09
          -6.66582e-09 -4.86925e-09 -4.04675e-08 -8.43036e-09 -4.64501e-08 -2.12983e-09 -1.38374e-09 -4.10709e-09 -3.03888e-08 -9.5169e-10 -1.46325e-09 -4.51899e-09
          -2.41512e-08 -2.67269e-08 -1.87434e-09 -2.71041e-09 -3.83503e-09 -4.30194e-08 -4.00348e-09 -5.78255e-08 -1.23057e-09 -7.98964e-10 -4.87317e-09 -2.73716e-08
          -8.95657e-10 -1.32916e-09 -4.91218e-09 -2.02224e-08 -2.59162e-08 -3.5613e-09 -1.49372e-09 -2.54573e-09 -4.31121e-08 -2.5969e-09 -6.99307e-08 -7.19239e-10
          -4.79726e-10 -7.89123e-09 -2.19721e-08 -1.06864e-09 -1.24484e-09 -5.31598e-09 -1.45091e-08 -2.28511e-08 -5.00834e-09 -1.59123e-09 -2.25633e-09 -4.19185e-08
          -1.45969e-09 -8.0954e-08 -5.86365e-10 -4.11896e-10 -1.0116e-08 -1.69681e-08 -1.86088e-09 -1.28969e-09 -5.59535e-09 -1.18722e-08 -1.57149e-08 -8.43361e-09
          -1.52446e-09 -2.57512e-09 -4.17744e-08 -1.04952e-09 -8.83341e-08 -2.1449e-09 1.6052e-10 -8.95083e-09 -1.10125e-08 -4.65925e-09 -2.26049e-09 -5.76167e-09
          -1.04096e-08 -1.18525e-08 -8.08019e-09 -1.77256e-09 -3.18319e-09 -3.99756e-08 -2.27675e-09 -9.22558e-08 -8.95819e-09 -8.91997e-10 -6.73184e-09 -5.32386e-09
          -6.92886e-09 -3.22733e-09 -5.6593e-09 -7.25264e-09 -1.40433e-08 -5.37206e-09 -1.94357e-09 -4.28918e-09 -3.66249e-08 -1.06864e-09 -8.69162e-08 -1.5575e-08
          -2.57115e-09 -3.99294e-09 -2.21966e-09 -7.27921e-09 -4.91778e-09 -4.94837e-09 -7.84973e-09 -1.3073e-08 -3.24681e-09 -1.47755e-09 -5.34572e-09 -3.62832e-08
          -6.93403e-10 -7.85499e-08 -1.86661e-08 -4.89143e-09 -3.25953e-09 -1.60752e-09 -6.3832e-09 -6.9524e-09 -4.14501e-09 -9.87228e-09 -1.05617e-08 -2.01199e-09
          -1.40473e-09 -6.33606e-09 -3.59876e-08 -9.28225e-10 -6.77824e-08 -2.11458e-08 -8.19988e-09 -4.22753e-09 -3.83557e-09 -8.74295e-09 -1.08609e-08 -3.22461e-09
          -1.08525e-08 -8.62986e-09 -1.35568e-09 -1.47834e-09 -8.2343e-09 -3.16235e-08 -2.12783e-09 -5.45589e-08 -2.15922e-08 -1.14351e-08 -3.02823e-09 -3.38273e-09
          -8.27375e-09 -1.67271e-08 -2.40602e-09 -1.07383e-08 -6.99466e-09 -1.0566e-09 -1.51279e-09 -1.24826e-08 -2.34175e-08 -3.1083e-09 -4.3047e-08 -2.34973e-08
          -1.5707e-08 -2.7466e-09 -2.93071e-09 -5.57877e-09 -2.08855e-08 -1.9276e-09 -9.87445e-09 -5.6477e-09 -1.39359e-09 -1.32829e-09 -1.58204e-08 -1.57127e-08
          -3.23277e-09 -3.14278e-08 -2.40004e-08 -2.40014e-08 -2.8318e-09 -3.10917e-09 -6.52629e-09 -2.40977e-08 -2.12966e-09 -8.22677e-09 -3.89725e-09 -1.14522e-09
          -1.09469e-09 -1.69862e-08 -9.75869e-09 -3.07057e-09 -2.35467e-08 -1.78024e-08 -3.98511e-08 -2.86664e-09 -2.90727e-09 -8.00078e-09 -2.55513e-08 -2.67484e-09
          -6.44429e-09 -3.10679e-09 -1.33031e-09 -1.07028e-09 -1.63526e-08 -6.35794e-09 -3.00407e-09 -1.89244e-08 -8.84955e-09 -5.20623e-08 -3.15287e-09 -3.61101e-09
          -9.81836e-09 -2.70031e-08 -2.9811e-09 -4.25325e-09 -2.10721e-09 -1.47943e-09 -1.21879e-09 -1.29214e-08 -5.60977e-09 -3.34516e-09 -1.80504e-08 -5.60597e-09
          -5.46154e-08 -4.01203e-09 -5.48726e-09 -1.10015e-08 -2.89091e-08 -4.22489e-09 -2.08997e-09 -1.13334e-09 -1.04432e-09 -1.12223e-09 -7.48718e-09 -5.14465e-09
          -3.60817e-09 -1.93271e-08 -5.42339e-09 -4.8884e-08 -6.65086e-09 -9.48502e-09 -1.52362e-08 -3.06255e-08 -5.33304e-09 -6.47994e-10 -4.81426e-10 -3.57508e-10
          -3.58474e-10 -2.07547e-09 -2.21418e-09 -1.8072e-09 -1.11811e-08 -5.60844e-09 -2.84262e-08 -1.21787e-08 -1.06725e-08 -1.21827e-08 -1.70249e-08 -2.8618e-09
        </DataArray>
        <DataArray type="Float32" Name="z[0]" NumberOfComponents="1" format="ascii">
          0.150578 0.150579 0.15058 0.150582 0.150582 0.150583 0.150584 0.150585 0.150585 0.150586 0.150587 0.150588
          0.150589 0.150591 0.150596 0.150581 0.150582 0.150583 0.150585 0.150586 0.150587 0.150587 0.150588 0.150588
          0.150589 0.15059 0.150591 0.150593 0.150595 0.150599 0.150584 0.150585 0.150587 0.150588 0.150589 0.15059
          0.15059 0.150591 0.150592 0.150593 0.150593 0.150595 0.150596 0.150598 0.150602 0.150588 0.150589 0.15059
          0.150591 0.150592 0.150593 0.150594 0.150963 0.150595 0.150596 0.150597 0.150598 0.150599 0.150601 0.150605
          0.150591 0.150592 0.150593 0.150594 0.154379 0.242366 0.265759 0.380879 0.150598 0.150599 0.1506 0.150601
          0.150602 0.150604 0.150609 0.150594 0.150595 0.150596 0.193626 0.404712 0.418756 0.401061 0.396201 0.150601