<?xml version="1.0"?>
<VTKFile type="UnstructuredGrid" version="0.1" byte_order="LittleEndian">
  <UnstructuredGrid>
    <Piece NumberOfCells="360" NumberOfPoints="800">
      <CellData Scalars="pressure[0]">
        <DataArray type="Float32" Name="pressure[0]" NumberOfComponents="1" format="ascii">
          2.11731e+07 2.11878e+07 2.22312e+07 2.31249e+07 2.34878e+07 2.39057e+07 2.4041e+07 2.40902e+07 2.41496e+07 2.42122e+07 2.43802e+07 2.46625e+07
          2.48791e+07 2.54761e+07 2.61844e+07 2.12176e+07 2.12323e+07 2.23872e+07 2.33306e+07 2.36881e+07 2.41026e+07 2.42e+07 2.42377e+07 2.42977e+07
          2.43679e+07 2.4606e+07 2.48976e+07 2.50662e+07 2.56722e+07 2.63491e+07 2.12625e+07 2.1277e+07 2.24494e+07 2.35003e+07 2.3822e+07 2.42058e+07
          2.43262e+07 2.4383e+07 2.44611e+07 2.45595e+07 2.48849e+07 2.52164e+07 2.53766e+07 2.59244e+07 2.65552e+07 2.13082e+07 2.13284e+07 2.22781e+07
          2.36477e+07 2.39506e+07 2.43226e+07 2.45358e+07 2.46121e+07 2.47136e+07 2.48414e+07 2.52505e+07 2.56213e+07 2.57721e+07 2.62171e+07 2.68083e+07
          2.13819e+07 2.14115e+07 1.97747e+07 2.37763e+07 2.43656e+07 2.49613e+07 2.50453e+07 2.5087e+07 2.51561e+07 2.54309e+07 2.57253e+07 2.60509e+07
          2.6169e+07 2.65398e+07 2.70556e+07 2.15664e+07 2.161e+07 2.18713e+07 2.45129e+07 2.50242e+07 2.54898e+07 2.5566e+07 2.56641e+07 2.59794e+07
          2.67694e+07 2.66866e+07 2.6452e+07 2.65376e+07 2.68644e+07 2.73299e+07 2.17925e+07 2.18415e+07 2.25896e+07 2.52279e+07 2.5652e+07 2.60062e+07
          2.60638e+07 2.61325e+07 2.61923e+07 2.64779e+07 2.66561e+07 2.67026e+07 2.68051e+07 2.72042e+07 2.77034e+07 2.21163e+07 2.21704e+07 2.30892e+07
          2.56984e+07 2.61751e+07 2.64368e+07 2.64883e+07 2.6535e+07 2.65894e+07 2.67364e+07 2.68598e+07 2.69181e+07 2.70874e+07 2.75501e+07 2.82114e+07
          2.25453e+07 2.26004e+07 2.35369e+07 2.59664e+07 2.66554e+07 2.68713e+07 2.69533e+07 2.70319e+07 2.69955e+07 2.70408e+07 2.70935e+07 2.71257e+07
          2.73154e+07 2.79333e+07 2.87166e+07 2.3097e+07 2.31915e+07 2.40286e+07 2.54314e+07 2.70474e+07 2.72488e+07 2.7439e+07 2.76178e+07 2.74426e+07
          2.73815e+07 2.73787e+07 2.73906e+07 2.76343e+07 2.83224e+07 2.90261e+07 2.40161e+07 2.45126e+07 2.4959e+07 2.57427e+07 2.7374e+07 2.75344e+07
          2.78446e+07 2.81189e+07 2.79164e+07 2.77926e+07 2.77484e+07 2.787e+07 2.80334e+07 2.86647e+07 2.9596e+07 2.56604e+07 2.58169e+07 2.5931e+07
          2.63373e+07 2.77128e+07 2.78158e+07 2.82627e+07 2.86379e+07 2.87256e+07 2.86004e+07 2.85206e+07 2.85884e+07 2.89854e+07 2.96494e+07 3.02554e+07
          2.67046e+07 2.67378e+07 2.66237e+07 2.70809e+07 2.81776e+07 2.82777e+07 2.87584e+07 2.91851e+07 2.92807e+07 2.93188e+07 2.93368e+07 2.95321e+07
          2.99696e+07 3.06971e+07 3.08362e+07 2.75267e+07 2.75585e+07 2.73302e+07 2.82375e+07 2.89342e+07 2.90109e+07 2.94076e+07 2.97251e+07 2.97919e+07
          2.98774e+07 2.99636e+07 3.03841e+07 3.09337e+07 3.13662e+07 3.12159e+07 2.81959e+07 2.81971e+07 2.82066e+07 2.92422e+07 2.96333e+07 2.96906e+07
          2.99573e+07 3.01494e+07 3.01988e+07 3.02747e+07 3.04197e+07 3.10697e+07 3.15785e+07 3.17455e+07 3.16611e+07 2.88008e+07 2.88302e+07 2.89518e+07
          2.98631e+07 3.00658e+07 3.01187e+07 3.03081e+07 3.04347e+07 3.04822e+07 3.05511e+07 3.08105e+07 3.14354e+07 3.19027e+07 3.21782e+07 3.20828e+07
          2.94216e+07 2.94739e+07 2.98463e+07 3.03169e+07 3.04244e+07 3.04639e+07 3.05666e+07 3.06565e+07 3.07031e+07 3.07634e+07 3.1101e+07 3.18414e+07
          3.23424e+07 3.26106e+07 3.24715e+07 2.99271e+07 2.99862e+07 3.03194e+07 3.05733e+07 3.06859e+07 3.07304e+07 3.08114e+07 3.08793e+07 3.09276e+07
          3.09834e+07 3.13957e+07 3.21764e+07 3.26876e+07 3.29104e+07 3.28592e+07 3.02202e+07 3.02848e+07 3.04842e+07 3.07687e+07 3.09174e+07 3.09648e+07
          3.10366e+07 3.10968e+07 3.11417e+07 3.11957e+07 3.16477e+07 3.25085e+07 3.30314e+07 3.32027e+07 3.33837e+07 3.04587e+07 3.05166e+07 3.06957e+07
          3.0978e+07 3.11243e+07 3.11721e+07 3.12419e+07 3.12992e+07 3.13445e+07 3.14037e+07 3.18512e+07 3.2798e+07 3.33711e+07 3.35094e+07 3.38844e+07
          3.06625e+07 3.07271e+07 3.0871e+07 3.11322e+07 3.13122e+07 3.1364e+07 3.14387e+07 3.14991e+07 3.15577e+07 3.16307e+07 3.22598e+07 3.3271e+07
          3.36885e+07 3.38335e+07 3.42823e+07 3.08585e+07 3.09253e+07 3.10543e+07 3.13092e+07 3.14923e+07 3.15486e+07 3.16343e+07 3.17029e+07 3.17772e+07
          3.18605e+07 3.27061e+07 3.37554e+07 3.40163e+07 3.41889e+07 3.46709e+07 3.10392e+07 3.11008e+07 3.12542e+07 3.15219e+07 3.16724e+07 3.17361e+07
          3.18361e+07 3.19152e+07 3.20094e+07 3.21115e+07 3.3089e+07 3.41605e+07 3.4385e+07 3.45763e+07 3.49589e+07 3.12061e+07 3.12651e+07 3.14007e+07
          3.16686e+07 3.18592e+07 3.19243e+07 3.20363e+07 3.21278e+07 3.22415e+07 3.23766e+07 3.35087e+07 3.45169e+07 3.47649e+07 3.49396e+07 3.52173e+07
        </DataArray>
        <DataArray type="Float32" Name="pressure[1]" NumberOfComponents="1" format="ascii">
          2.11731e+07 2.11878e+07 2.22312e+07 2.31249e+07 2.34878e+07 2.39057e+07 2.4041e+07 2.40902e+07 2.41496e+07 2.42122e+07 2.43802e+07 2.46625e+07
          2.48791e+07 2.54761e+07 2.61844e+07 2.12176e+07 2.12323e+07 2.23872e+07 2.33306e+07 2.36881e+07 2.41026e+07 2.42e+07 2.42377e+07 2.42977e+07
          2.43679e+07 2.4606e+07 2.48976e+07 2.50662e+07 2.56722e+07 2.63491e+07 2.12625e+07 2.1277e+07 2.24494e+07 2.35003e+07 2.3822e+07 2.42058e+07
          2.43262e+07 2.4383e+07 2.44611e+07 2.45595e+07 2.48849e+07 2.52164e+07 2.53766e+07 2.59244e+07 2.65552e+07 2.13082e+07 2.13284e+07 2.22781e+07
          2.36477e+07 2.39506e+07 2.43226e+07 2.45358e+07 2.46121e+07 2.47136e+07 2.48414e+07 2.52505e+07 2.56213e+07 2.57721e+07 2.62171e+07 2.68083e+07
          2.13819e+07 2.14115e+07 1.97747e+07 2.37763e+07 2.43656e+07 2.49613e+07 2.50453e+07 2.5087e+07 2.51561e+07 2.54309e+07 2.57253e+07 2.60509e+07
          2.6169e+07 2.65398e+07 2.70556e+07 2.15664e+07 2.161e+07 2.18713e+07 2.45129e+07 2.50242e+07 2.54898e+07 2.5566e+07 2.56641e+07 2.59794e+07
          2.67694e+07 2.66866e+07 2.6452e+07 2.65376e+07 2.68644e+07 2.73299e+07 2.17925e+07 2.18415e+07 2.25896e+07 2.52279e+07 2.5652e+07 2.60062e+07
          2.60638e+07 2.61325e+07 2.61923e+07 2.64779e+07 2.66561e+07 2.67026e+07 2.68051e+07 2.72042e+07 2.77034e+07 2.21163e+07 2.21704e+07 2.30892e+07
          2.56984e+07 2.61751e+07 2.64368e+07 2.64883e+07 2.6535e+07 2.65894e+07 2.67364e+07 2.68598e+07 2.69181e+07 2.70874e+07 2.75501e+07 2.82114e+07
          2.25453e+07 2.26004e+07 2.35369e+07 2.59664e+07 2.66554e+07 2.68713e+07 2.69533e+07 2.70319e+07 2.69955e+07 2.70408e+07 2.70935e+07 2.71257e+07
          2.73154e+07 2.79333e+07 2.87166e+07 2.3097e+07 2.31915e+07 2.40286e+07 2.54314e+07 2.70474e+07 2.72488e+07 2.7439e+07 2.76178e+07 2.74426e+07
          2.73815e+07 2.73787e+07 2.73906e+07 2.76343e+07 2.83224e+07 2.90261e+07 2.40161e+07 2.45126e+07 2.4959e+07 2.57427e+07 2.7374e+07 2.75344e+07
          2.78446e+07 2.81189e+07 2.79164e+07 2.77926e+07 2.77484e+07 2.787e+07 2.80334e+07 2.86647e+07 2.9596e+07 2.56604e+07 2.58169e+07 2.5931e+07
          2.63373e+07 2.77128e+07 2.78158e+07 2.82627e+07 2.86379e+07 2.87256e+07 2.86004e+07 2.85206e+07 2.85884e+07 2.89854e+07 2.96494e+07 3.02554e+07
          2.67046e+07 2.67378e+07 2.66237e+07 2.70809e+07 2.81776e+07 2.82777e+07 2.87584e+07 2.91851e+07 2.92807e+07 2.93188e+07 2.93368e+07 2.95321e+07
          2.99696e+07 3.06971e+07 3.08362e+07 2.75267e+07 2.75585e+07 2.73302e+07 2.82375e+07 2.89342e+07 2.90109e+07 2.94076e+07 2.97251e+07 2.97919e+07
          2.98774e+07 2.99636e+07 3.03841e+07 3.09337e+07 3.13662e+07 3.12159e+07 2.81959e+07 2.81971e+07 2.82066e+07 2.92422e+07 2.96333e+07 2.96906e+07
          2.99573e+07 3.01494e+07 3.01988e+07 3.02747e+07 3.04197e+07 3.10697e+07 3.15785e+07 3.17455e+07 3.16611e+07 2.88008e+07 2.88302e+07 2.89518e+07
          2.98631e+07 3.00658e+07 3.01187e+07 3.03081e+07 3.04347e+07 3.04822e+07 3.05511e+07 3.08105e+07 3.14354e+07 3.19027e+07 3.21782e+07 3.20828e+07
          2.94216e+07 2.94739e+07 2.98463e+07 3.03169e+07 3.04244e+07 3.04639e+07 3.05666e+07 3.06565e+07 3.07031e+07 3.07634e+07 3.1101e+07 3.18414e+07
          3.23424e+07 3.26106e+07 3.24715e+07 2.99271e+07 2.99862e+07 3.03194e+07 3.05733e+07 3.06859e+07 3.07304e+07 3.08114e+07 3.08793e+07 3.09276e+07
          3.09834e+07 3.13957e+07 3.21764e+07 3.26876e+07 3.29104e+07 3.28592e+07 3.02202e+07 3.02848e+07 3.04842e+07 3.07687e+07 3.09174e+07 3.09648e+07
          3.10366e+07 3.10968e+07 3.11417e+07 3.11957e+07 3.16477e+07 3.25085e+07 3.30314e+07 3.32027e+07 3.33837e+07 3.04587e+07 3.05166e+07 3.06957e+07
          3.0978e+07 3.11243e+07 3.11721e+07 3.12419e+07 3.12992e+07 3.13445e+07 3.14037e+07 3.18512e+07 3.2798e+07 3.33711e+07 3.35094e+07 3.38844e+07
          3.06625e+07 3.07271e+07 3.0871e+07 3.11322e+07 3.13122e+07 3.1364e+07 3.14387e+07 3.14991e+07 3.15577e+07 3.16307e+07 3.22598e+07 3.3271e+07
          3.36885e+07 3.38335e+07 3.42823e+07 3.08585e+07 3.09253e+07 3.10543e+07 3.13092e+07 3.14923e+07 3.15486e+07 3.16343e+07 3.17029e+07 3.17772e+07
          3.18605e+07 3.27061e+07 3.37554e+07 3.40163e+07 3.41889e+07 3.46709e+07 3.10392e+07 3.11008e+07 3.12542e+07 3.15219e+07 3.16724e+07 3.17361e+07
          3.18361e+07 3.19152e+07 3.20094e+07 3.21115e+07 3.3089e+07 3.41605e+07 3.4385e+07 3.45763e+07 3.49589e+07 3.12061e+07 3.12651e+07 3.14007e+07
          3.16686e+07 3.18592e+07 3.19243e+07 3.20363e+07 3.21278e+07 3.22415e+07 3.23766e+07 3.35087e+07 3.45169e+07 3.47649e+07 3.49396e+07 3.52173e+07
        </DataArray>
        <DataArray type="Float32" Name="pressure[2]" NumberOfComponents="1" format="ascii">
          2.11731e+07 2.11878e+07 2.22312e+07 2.31249e+07 2.34878e+07 2.39057e+07 2.4041e+07 2.40902e+07 2.41496e+07 2.42122e+07 2.43802e+07 2.46625e+07
          2.48791e+07 2.54761e+07 2.61844e+07 2.12176e+07 2.12323e+07 2.23872e+07 2.33306e+07 2.36881e+07 2.41026e+07 2.42e+07 2.42377e+07 2.42977e+07
          2.43679e+07 2.4606e+07 2.48976e+07 2.50662e+07 2.56722e+07 2.63491e+07 2.12625e+07 2.1277e+07 2.24494e+07 2.35003e+07 2.3822e+07 2.42058e+07
          2.43262e+07 2.4383e+07 2.44611e+07 2.45595e+07 2.48849e+07 2.52164e+07 2.53766e+07 2.59244e+07 2.65552e+07 2.13082e+07 2.13284e+07 2.22781e+07
          2.36477e+07 2.39506e+07 2.43226e+07 2.45358e+07 2.46121e+07 2.47136e+07 2.48414e+07 2.52505e+07 2.56213e+07 2.57721e+07 2.62171e+07 2.68083e+07
          2.13819e+07 2.14115e+07 1.97747e+07 2.37763e+07 2.43656e+07 2.49613e+07 2.50453e+07 2.5087e+07 2.51561e+07 2.54309e+07 2.57253e+07 2.60509e+07
          2.6169e+07 2.65398e+07 2.70556e+07 2.15664e+07 2.161e+07 2.18713e+07 2.45129e+07 2.50242e+07 2.54898e+07 2.5566e+07 2.56641e+07 2.59794e+07
          2.67694e+07 2.66866e+07 2.6452e+07 2.65376e+07 2.68644e+07 2.73299e+07 2.17925e+07 2.18415e+07 2.25896e+07 2.52279e+07 2.5652e+07 2.60062e+07
          2.60638e+07 2.61325e+07 2.61923e+07 2.64779e+07 2.66561e+07 2.67026e+07 2.68051e+07 2.72042e+07 2.77034e+07 2.21163e+07 2.21704e+07 2.30892e+07
          2.56984e+07 2.61751e+07 2.64368e+07 2.64883e+07 2.6535e+07 2.65894e+07 2.67364e+07 2.68598e+07 2.69181e+07 2.70874e+07 2.75501e+07 2.82114e+07
          2.25453e+07 2.26004e+07 2.35369e+07 2.59664e+07 2.66554e+07 2.68713e+07 2.69533e+07 2.70319e+07 2.69955e+07 2.70408e+07 2.70935e+07 2.71257e+07
          2.73154e+07 2.79333e+07 2.87166e+07 2.3097e+07 2.31915e+07 2.40286e+07 2.54314e+07 2.70474e+07 2.72488e+07 2.7439e+07 2.76178e+07 2.74426e+07
          2.73815e+07 2.73787e+07 2.73906e+07 2.76343e+07 2.83224e+07 2.90261e+07 2.40161e+07 2.45126e+07 2.4959e+07 2.57427e+07 2.7374e+07 2.75344e+07
          2.78446e+07 2.81189e+07 2.79164e+07 2.77926e+07 2.77484e+07 2.787e+07 2.80334e+07 2.86647e+07 2.9596e+07 2.56604e+07 2.58169e+07 2.5931e+07
          2.63373e+07 2.77128e+07 2.78158e+07 2.82627e+07 2.86379e+07 2.87256e+07 2.86004e+07 2.85206e+07 2.85884e+07 2.89854e+07 2.96494e+07 3.02554e+07
          2.67046e+07 2.67378e+07 2.66237e+07 2.70809e+07 2.81776e+07 2.82777e+07 2.87584e+07 2.91851e+07 2.92807e+07 2.93188e+07 2.93368e+07 2.95321e+07
          2.99696e+07 3.06971e+07 3.08362e+07 2.75267e+07 2.75585e+07 2.73302e+07 2.82375e+07 2.89342e+07 2.90109e+07 2.94076e+07 2.97251e+07 2.97919e+07
          2.98774e+07 2.99636e+07 3.03841e+07 3.09337e+07 3.13662e+07 3.12159e+07 2.81959e+07 2.81971e+07 2.82066e+07 2.92422e+07 2.96333e+07 2.96906e+07
          2.99573e+07 3.01494e+07 3.01988e+07 3.02747e+07 3.04197e+07 3.10697e+07 3.15785e+07 3.17455e+07 3.16611e+07 2.88008e+07 2.88302e+07 2.89518e+07
          2.98631e+07 3.00658e+07 3.01187e+07 3.03081e+07 3.04347e+07 3.04822e+07 3.05511e+07 3.08105e+07 3.14354e+07 3.19027e+07 3.21782e+07 3.20828e+07
          2.94216e+07 2.94739e+07 2.98463e+07 3.03169e+07 3.04244e+07 3.04639e+07 3.05666e+07 3.06565e+07 3.07031e+07 3.07634e+07 3.1101e+07 3.18414e+07
          3.23424e+07 3.26106e+07 3.24715e+07 2.99271e+07 2.99862e+07 3.03194e+07 3.05733e+07 3.06859e+07 3.07304e+07 3.08114e+07 3.08793e+07 3.09276e+07
          3.09834e+07 3.13957e+07 3.21764e+07 3.26876e+07 3.29104e+07 3.28592e+07 3.02202e+07 3.02848e+07 3.04842e+07 3.07687e+07 3.09174e+07 3.09648e+07
          3.10366e+07 3.10968e+07 3.11417e+07 3.11957e+07 3.16477e+07 3.25085e+07 3.30314e+07 3.32027e+07 3.33837e+07 3.04587e+07 3.05166e+07 3.06957e+07
          3.0978e+07 3.11243e+07 3.11721e+07 3.12419e+07 3.12992e+07 3.13445e+07 3.14037e+07 3.18512e+07 3.2798e+07 3.33711e+07 3.35094e+07 3.38844e+07
          3.06625e+07 3.07271e+07 3.0871e+07 3.11322e+07 3.13122e+07 3.1364e+07 3.14387e+07 3.14991e+07 3.15577e+07 3.16307e+07 3.22598e+07 3.3271e+07
          3.36885e+07 3.38335e+07 3.42823e+07 3.08585e+07 3.09253e+07 3.10543e+07 3.13092e+07 3.14923e+07 3.15486e+07 3.16343e+07 3.17029e+07 3.17772e+07
          3.18605e+07 3.27061e+07 3.37554e+07 3.40163e+07 3.41889e+07 3.46709e+07 3.10392e+07 3.11008e+07 3.12542e+07 3.15219e+07 3.16724e+07 3.17361e+07
          3.18361e+07 3.19152e+07 3.20094e+07 3.21115e+07 3.3089e+07 3.41605e+07 3.4385e+07 3.45763e+07 3.49589e+07 3.12061e+07 3.12651e+07 3.14007e+07
          3.16686e+07 3.18592e+07 3.19243e+07 3.20363e+07 3.21278e+07 3.22415e+07 3.23766e+07 3.35087e+07 3.45169e+07 3.47649e+07 3.49396e+07 3.52173e+07
        </DataArray>
        <DataArray type="Float32" Name="velocity[0]" NumberOfComponents="1" format="ascii">
          -1.8217e-09 6.51459e-08 -1.67722e-10 -2.14042e-08 -7.35593e-10 -2.56179e-09 -3.65265e-09 -1.032e-09 -2.19578e-09 -2.93683e-09 -2.25985e-09 -3.32055e-09
          -2.4656e-09 -6.03343e-10 -2.4638e-09 -1.0401e-08 1.92625e-07 3.26532e-10 -7.45646e-08 -6.42112e-10 -3.25732e-10 -2.78302e-10 -1.60018e-09 -7.43213e-09
          -9.10311e-09 -4.89417e-09 -1.35344e-08 -8.51649e-09 -1.89043e-09 -6.53697e-09 -3.51296e-08 2.98671e-07 1.7313e-09 -8.47498e-08 3.89368e-10 4.15833e-09
          -6.76056e-10 -6.57129e-09 -1.67042e-08 -1.5501e-08 -6.22426e-09 -3.26659e-08 -1.12815e-08 -3.90476e-09 -9.73863e-09 -3.5336e-08 3.32455e-07 1.01745e-08
          -2.0657e-08 -1.84006e-09 -1.34776e-08 -2.82436e-08 -2.67307e-08 -2.51546e-08 -2.68975e-08 -8.29251e-09 -6.08243e-08 -7.81163e-09 -5.45351e-09 -1.31108e-08
          -7.0319e-08 7.24803e-08 3.56373e-09 -6.12623e-08 -8.47323e-09 -4.66245e-08 -6.39476e-08 -6.48896e-08 -2.85272e-08 -3.49099e-08 -1.79629e-08 -1.14369e-07
          -4.06141e-09 -4.88693e-09 -1.59521e-08 -1.2982e-07 -1.61399e-07 -6.78566e-09 -1.00563e-07 -1.46096e-08 -9.72203e-08 -6.80162e-08 -9.34812e-08 -1.58612e-08
          -1.47317e-08 -8.49201e-09 -1.26028e-07 -2.22467e-09 -3.79374e-09 -1.77721e-08 -1.3603e-07 -1.47123e-07 -2.47946e-09 -3.29851e-08 -1.35733e-08 -1.57594e-07
          -4.71571e-08 -1.37041e-07 -3.84452e-09 2.07204e-09 1.21404e-09 -9.94443e-08 -1.52614e-09 -3.57883e-09 -1.89968e-08 -1.23575e-07 -1.33847e-07 -2.35569e-09
          -5.14382e-09 -8.53726e-09 -1.89003e-07 -2.68818e-08 -2.12232e-07 -4.72225e-09 -1.30154e-09 -9.36941e-09 -9.9441e-08 -1.15099e-09 -3.57921e-09 -2.04123e-08
          -1.10905e-07 -1.19123e-07 -3.44075e-09 6.45673e-10 -5.51432e-09 -1.9765e-07 -1.08235e-08 -2.7664e-07 -3.45227e-09 -1.75573e-09 -1.90793e-08 -9.10737e-08
          -1.08623e-09 -3.19317e-09 -2.23198e-08 -9.41216e-08 -9.45737e-08 -1.60015e-08 7.2807e-10 -4.1035e-09 -1.9872e-07 -3.64521e-09 -3.378e-07 -3.62493e-09
          -2.7325e-09 -4.2591e-08 -5.9731e-08 -2.41015e-09 -2.79975e-09 -2.42295e-08 -5.82956e-08 -6.46204e-08 -3.90616e-08 -1.37167e-09 -4.34333e-09 -1.9906e-07
          -1.24363e-09 -3.9924e-07 -4.759e-09 -3.38843e-09 -4.82349e-08 -3.95268e-08 -4.65031e-09 -4.00821e-09 -2.5469e-08 -3.33351e-08 -5.55347e-08 -5.03098e-08
          -1.75011e-09 -7.00708e-09 -2.02882e-07 -1.03485e-09 -4.32159e-07 -1.27345e-08 -3.75311e-09 -3.35283e-08 -3.43617e-08 -1.05577e-08 -6.1495e-09 -2.60259e-08
          -2.93614e-08 -5.73263e-08 -4.07799e-08 -1.8419e-09 -1.16238e-08 -1.92147e-07 -1.45922e-09 -4.30575e-07 -3.76664e-08 -5.06953e-09 -2.3124e-08 -1.73338e-08
          -2.15784e-08 -1.04487e-08 -2.61178e-08 -3.23145e-08 -6.66715e-08 -2.47362e-08 -2.25714e-09 -1.6637e-08 -1.75934e-07 -1.46997e-09 -3.99346e-07 -6.66512e-08
          -9.92455e-09 -1.36516e-08 -5.24698e-09 -2.61399e-08 -2.01248e-08 -2.47235e-08 -4.04266e-08 -6.38204e-08 -1.32554e-08 -2.30559e-09 -2.18153e-08 -1.71479e-07
          -1.0271e-09 -3.57319e-07 -8.02787e-08 -1.73093e-08 -9.99514e-09 -2.8355e-09 -2.44192e-08 -3.20768e-08 -2.18984e-08 -4.97247e-08 -5.11164e-08 -5.94144e-09
          -2.73385e-09 -2.7244e-08 -1.68146e-07 -1.24621e-09 -3.01748e-07 -8.34904e-08 -2.51382e-08 -6.41724e-09 -3.92022e-09 -2.7761e-08 -4.76115e-08 -1.83586e-08
          -5.26252e-08 -4.01672e-08 -2.94065e-09 -3.59087e-09 -3.84241e-08 -1.46475e-07 -2.41189e-09 -2.38462e-07 -8.38605e-08 -3.9395e-08 -2.78274e-09 -3.89904e-09
          -2.27984e-08 -7.09453e-08 -1.45485e-08 -5.12647e-08 -3.18489e-08 -1.27747e-09 -2.39073e-09 -5.65142e-08 -1.04959e-07 -3.71151e-09 -1.8262e-07 -9.05617e-08
          -5.94394e-08 -1.99521e-09 -2.64295e-09 -1.484e-08 -9.29174e-08 -1.13448e-08 -4.59538e-08 -2.25777e-08 -9.22556e-10 -9.79442e-10 -6.99906e-08 -6.65341e-08
          -3.90461e-09 -1.30656e-07 -9.06869e-08 -9.36791e-08 -1.15871e-09 -2.18192e-09 -1.94629e-08 -1.06363e-07 -9.9318e-09 -3.79962e-08 -1.51726e-08 -1.14427e-09
          -4.68055e-10 -7.46582e-08 -3.78659e-08 -3.262e-09 -9.56559e-08 -5.87586e-08 -1.62917e-07 -2.04201e-09 -3.1172e-09 -2.89416e-08 -1.1294e-07 -1.06962e-08
          -2.89889e-08 -1.02225e-08 -1.06793e-09 -1.08625e-10 -6.94897e-08 -1.98393e-08 -2.80208e-09 -7.52934e-08 -2.46314e-08 -2.26447e-07 -3.21238e-09 -5.75188e-09
          -3.51803e-08 -1.18161e-07 -1.22999e-08 -1.82135e-08 -5.20563e-09 -1.7186e-09 -6.53875e-10 -5.14494e-08 -1.35379e-08 -2.74952e-09 -7.13326e-08 -1.33918e-08
          -2.39619e-07 -2.92781e-09 -1.10322e-08 -3.85268e-08 -1.23461e-07 -1.52754e-08 -8.49372e-09 -2.07756e-09 -7.74118e-10 -4.31194e-10 -2.57537e-08 -1.01446e-08
          -2.26426e-09 -7.5562e-08 -1.08137e-08 -2.06578e-07 -4.06108e-09 -1.90119e-08 -5.06457e-08 -1.28757e-07 -1.99598e-08 -2.24895e-09 -4.67481e-10 1.74507e-10
          6.7962e-11 -6.10511e-09 -3.87976e-09 -8.30518e-10 -3.85748e-08 -5.04086e-09 -8.93392e-08 -2.67986e-09 -1.15343e-08 -3.02752e-08 -6.6208e-08 -1.12106e-08
        </DataArray>
        <DataArray type="Float32" Name="velocity[1]" NumberOfComponents="1" format="ascii">
          2.83114e-25 1.06189e-23 6.46429e-26 -3.32647e-24 1.1432e-25 0 5.67665e-25 1.39074e-25 -6.4827e-26 5.49228e-24 -3.43338e-24 -2.57172e-26
          2.15884e-24 -9.24414e-25 3.82871e-25 1.05021e-24 9.30104e-24 6.06063e-26 -4.93529e-24 -1.03492e-25 8.99607e-24 1.27846e-24 1.46007e-25 -8.84556e-24
          -4.86301e-27 0 -2.7666e-27 -4.19922e-26 -8.93513e-27 2.50117e-25 2.79291e-24 -1.37191e-23 -3.51503e-24 3.3524e-24 5.31935e-26 0
          1.21436e-24 8.5349e-25 -9.68454e-25 0 6.29916e-24 -1.06212e-23 0 9.81573e-25 -2.43328e-25 -5.70812e-24 2.43484e-23 -2.3514e-24
          2.62415e-24 9.56349e-25 1.0534e-23 -1.77147e-23 2.31335e-23 -1.48007e-24 -3.47094e-24 3.32877e-24 -3.8226e-24 2.46823e-24 -1.09988e-24 8.28187e-25
          -1.29358e-25 -7.772e-23 3.58161e-24 4.30178e-24 5.66922e-26 -2.32662e-24 -4.74889e-25 7.0682e-25 5.93484e-24 -5.77599e-24 5.51246e-24 -9.15212e-24
          5.71023e-26 1.31113e-25 -1.32205e-24 -3.32751e-25 5.02474e-24 -2.6736e-25 4.03345e-24 -1.03305e-25 -2.0511e-24 0 -7.46383e-24 7.28828e-25
          -9.61595e-24 -1.95096e-23 1.56332e-23 -1.09659e-24 5.60542e-25 1.32582e-24 -7.18086e-25 -1.18295e-24 0 3.62497e-24 -5.36069e-25 -1.18544e-23
          1.96752e-24 -2.15651e-24 3.2015e-25 1.19222e-26 3.42305e-25 2.6526e-25 -1.4414e-25 1.78661e-26 -1.43994e-24 -8.57756e-25 1.02542e-23 1.08779e-24
          1.33264e-24 -1.56899e-26 1.31631e-23 4.3771e-25 -1.58451e-25 5.1597e-25 1.15929e-25 -1.15893e-24 -7.25579e-24 1.19212e-25 -2.42959e-25 1.65992e-24
          3.44441e-25 -7.26879e-24 -1.76797e-25 -1.6336e-24 -1.53187e-25 1.86298e-24 0 0 3.33904e-25 -1.22924e-25 1.78132e-25 2.79187e-24
          2.0451e-25 7.02757e-26 1.10987e-27 -8.55915e-24 5.58548e-24 1.27568e-24 -2.30762e-25 -1.89422e-24 2.43994e-24 -4.62631e-24 5.20355e-24 -3.36939e-25
          -1.86095e-26 2.9171e-25 4.14786e-24 -6.74092e-25 0 -1.80884e-24 -2.0798e-25 -3.46211e-25 1.76606e-24 -7.50773e-26 1.96006e-24 -9.23252e-27
          -3.10051e-24 8.67179e-24 3.57526e-26 -7.82713e-26 -5.61417e-25 1.88665e-24 9.38635e-25 -8.86488e-26 4.43244e-26 -2.1893e-24 1.23169e-24 5.19536e-27
          3.78154e-26 -1.30143e-24 -1.59032e-23 2.54836e-26 7.77085e-25 -2.10471e-24 -4.60896e-26 4.92876e-25 1.36008e-24 -4.8245e-25 6.25369e-25 -4.14223e-26
          2.37353e-24 4.00073e-24 0 -3.04814e-26 4.14647e-25 1.92845e-24 4.5826e-26 -1.02518e-24 -2.73109e-24 7.07713e-27 -1.33748e-24 -5.92673e-25
          9.9602e-25 -5.41232e-25 -3.07517e-28 2.74437e-25 -2.59937e-27 5.12483e-25 -6.88545e-26 3.94748e-27 1.34648e-23 -3.59535e-26 -3.83268e-24 5.08696e-24
          -1.1982e-24 1.32158e-24 1.68006e-24 -3.35563e-24 4.36906e-28 -1.82644e-24 -2.64034e-24 -4.47673e-24 2.51424e-27 1.92419e-25 4.36765e-25 -1.28598e-27
          -3.00303e-26 -6.6263e-24 1.74261e-24 0 0 2.22769e-25 2.88489e-24 -3.92067e-25 3.4035e-24 0 9.97847e-25 0
          -2.58976e-25 4.08608e-25 -7.63115e-28 6.40826e-26 -5.93174e-24 1.11917e-27 6.17984e-28 5.81199e-28 3.12184e-24 -3.30599e-29 -9.21441e-25 -1.57654e-24
          -4.35544e-30 7.04035e-25 3.95282e-28 -4.09105e-26 1.33121e-24 -7.58619e-24 0 -7.844e-24 0 -1.10419e-28 2.30555e-24 -2.84909e-24
          -1.27562e-24 1.50161e-28 9.84595e-25 0 2.76933e-24 0 2.99288e-25 1.30504e-24 3.69375e-24 8.38725e-26 -4.77556e-24 -4.10417e-24
          -1.58778e-24 1.34056e-25 3.73337e-26 7.57756e-29 -1.30945e-24 -7.78516e-25 3.25992e-24 -1.68339e-24 1.82204e-24 -1.47763e-24 6.14039e-25 6.40833e-24
          -5.39239e-26 -3.30026e-24 7.60595e-24 4.09147e-24 -2.46267e-24 5.2997e-26 6.79502e-25 -2.81764e-28 7.65003e-25 1.96907e-28 -2.96825e-24 6.44749e-25
          -1.34637e-24 2.23268e-25 -1.98054e-24 -9.08763e-26 -4.2769e-24 -3.84707e-24 7.02899e-24 2.00338e-25 2.63067e-24 7.93537e-25 -2.64928e-25 -6.32694e-25
          -7.8505e-25 4.7112e-25 0 -3.06363e-26 -9.15094e-25 3.32804e-24 -5.84972e-24 5.85172e-24 -4.24091e-24 1.09284e-27 0 0
          1.7613e-25 -4.72215e-28 1.01424e-24 -8.89572e-25 -9.3662e-25 8.62614e-25 -1.44809e-24 -5.8118e-25 -9.73043e-25 1.66895e-26 4.10486e-25 -2.77446e-24
          9.98133e-24 -1.88699e-25 -4.78236e-24 3.4381e-25 6.91689e-25 -3.24919e-29 -6.20748e-25 -2.03455e-28 -2.78326e-28 8.70371e-26 -2.10535e-24 3.7122e-25
          -9.37475e-26 7.57581e-24 -3.14362e-24 0 -2.01824e-25 -6.30232e-25 4.87505e-24 -5.6914e-25 0 -3.4974e-25 -2.46477e-28 -2.84499e-25
          4.82108e-25 -9.4829e-25 -1.60258e-24 -2.59558e-25 -2.00577e-24 7.83409e-25 -2.17056e-23 0 2.1692e-23 -1.58825e-23 1.31016e-23 3.29738e-25
        </DataArray>
        <DataArray type="Float32" Name="velocity[2]" NumberOfComponents="1" format="ascii">
          -2.38326e-10 8.55499e-09 -6.00959e-09 -8.62027e-09 -3.8608e-09 -4.04556e-09 -4.04459e-09 -3.4711e-09 -3.54573e-09 -3.45479e-09 -3.08926e-09 -2.95572e-09
          -2.48184e-09 -1.88435e-09 -1.25579e-09 -1.40641e-09 3.18291e-08 -5.0955e-09 -1.67928e-08 -2.27857e-09 -2.51723e-09 -2.94844e-09 -3.39512e-09 -4.28425e-09
          -4.29432e-09 -3.4126e-09 -4.51177e-09 -2.99127e-09 -1.49749e-09 -1.68257e-09 -5.01271e-09 5.28674e-08 -1.71174e-09 -1.82667e-08 -4.52768e-09 -3.88342e-09
          -4.54327e-09 -5.25177e-09 -6.58071e-09 -5.84028e-09 -3.94129e-09 -7.86115e-09 -3.44099e-09 -1.96269e-09 -2.24357e-09 -7.49403e-09 5.66005e-08 -3.44077e-10
          -8.23272e-09 -6.66353e-09 -7.82193e-09 -9.07446e-09 -7.89362e-09 -6.87818e-09 -6.92202e-09 -3.62736e-09 -1.21991e-08 -2.44056e-09 -2.17501e-09 -2.90119e-09
          -8.82759e-09 1.75884e-08 1.10246e-09 -1.37098e-08 -5.57102e-09 -1.13654e-08 -1.3368e-08 -1.2697e-08 -6.89253e-09 -8.71314e-09 -5.62577e-09 -2.16663e-08
          -1.03738e-09 -1.42142e-09 -3.16303e-09 -2.22986e-08 -2.80167e-08 -1.8386e-09 -2.09249e-08 -7.90825e-09 -2.12883e-08 -1.64999e-08 -2.10525e-08 -6.50259e-09
          -4.38374e-09 3.22751e-10 -2.08053e-08 -6.26556e-10 -1.09393e-09 -3.3826e-09 -2.42947e-08 -2.67504e-08 -1.46452e-09 -8.06978e-09 -6.02901e-09 -3.06452e-08
          -1.07955e-08 -2.58383e-08 -1.28171e-09 -4.33492e-10 -6.77648e-11 -1.75691e-08 -5.04191e-10 -9.31546e-10 -3.50179e-09 -2.22166e-08 -2.4658e-08 -1.65201e-09
          -2.34449e-09 -3.27184e-09 -3.49788e-08 -6.53749e-09 -3.85787e-08 -1.07918e-09 -6.05433e-10 -2.0136e-09 -1.78938e-08 -6.82463e-10 -1.22335e-09 -3.9125e-09
          -1.98012e-08 -2.19005e-08 -1.80902e-09 -1.07747e-09 -2.30353e-09 -3.60969e-08 -3.16884e-09 -4.94381e-08 -5.7946e-10 -3.42936e-10 -3.02155e-09 -1.59207e-08
          -6.80736e-10 -1.13494e-09 -4.25202e-09 -1.76175e-08 -1.94198e-08 -5.25558e-09 -1.20696e-09 -1.99758e-09 -3.64286e-08 -2.17419e-09 -6.02601e-08 -4.26062e-10
          -2.48866e-10 -6.30945e-09 -9.7719e-09 -1.03537e-09 -1.09833e-09 -4.58795e-09 -1.16169e-08 -1.44292e-08 -9.24673e-09 -1.54328e-09 -2.01009e-09 -3.62144e-08
          -1.24865e-09 -7.06963e-08 -3.66708e-10 -1.1977e-10 -8.74446e-09 -7.80332e-09 -1.49054e-09 -1.10679e-09 -4.58611e-09 -6.21754e-09 -1.06697e-08 -9.95291e-09
          -1.40276e-09 -2.23232e-09 -3.65897e-08 -9.15843e-10 -7.68009e-08 -2.27116e-09 -2.37754e-10 -5.7649e-09 -6.65491e-09 -2.61091e-09 -1.39734e-09 -4.67808e-09
          -5.09813e-09 -9.65255e-09 -7.25389e-09 -1.19524e-09 -2.77119e-09 -3.50453e-08 -1.99635e-09 -7.78336e-08 -7.67412e-09 -8.40657e-10 -4.38512e-09 -4.34584e-09
          -5.25909e-09 -2.29704e-09 -4.54322e-09 -5.57906e-09 -1.13474e-08 -4.35839e-09 -9.5956e-10 -3.35841e-09 -3.14936e-08 -9.19605e-10 -7.173e-08 -1.30497e-08
          -2.2064e-09 -2.9188e-09 -1.79477e-09 -5.74386e-09 -3.77092e-09 -3.95342e-09 -6.70209e-09 -1.07167e-08 -2.53831e-09 -1.03809e-09 -4.33755e-09 -3.06113e-08
          -5.92779e-10 -6.38885e-08 -1.53691e-08 -3.99762e-09 -2.59182e-09 -1.35098e-09 -5.15286e-09 -5.53994e-09 -3.32512e-09 -8.57064e-09 -8.93987e-09 -1.50916e-09
          -1.1277e-09 -5.28063e-09 -3.01107e-08 -7.93627e-10 -5.47893e-08 -1.7262e-08 -6.73626e-09 -3.46593e-09 -3.16662e-09 -7.08572e-09 -8.73735e-09 -2.59269e-09
          -9.28299e-09 -7.31616e-09 -1.02525e-09 -1.17412e-09 -6.84733e-09 -2.6332e-08 -1.79714e-09 -4.40706e-08 -1.75172e-08 -9.32425e-09 -2.50044e-09 -2.78835e-09
          -6.73659e-09 -1.35156e-08 -1.9391e-09 -9.12703e-09 -5.98028e-09 -8.76779e-10 -1.24396e-09 -1.03493e-08 -1.94303e-08 -2.61915e-09 -3.49597e-08 -1.91135e-08
          -1.27781e-08 -2.26743e-09 -2.41624e-09 -4.55751e-09 -1.69042e-08 -1.5582e-09 -8.36855e-09 -4.78838e-09 -1.17888e-09 -1.12013e-09 -1.30765e-08 -1.30005e-08
          -2.71027e-09 -2.56368e-08 -1.95875e-08 -1.9586e-08 -2.33625e-09 -2.56308e-09 -5.3394e-09 -1.95341e-08 -1.7221e-09 -6.96253e-09 -3.29854e-09 -9.68576e-10
          -9.25253e-10 -1.39974e-08 -8.06595e-09 -2.56647e-09 -1.92335e-08 -1.45787e-08 -3.26209e-08 -2.36273e-09 -2.39412e-09 -6.53081e-09 -2.07424e-08 -2.16981e-09
          -5.44857e-09 -2.62794e-09 -1.12457e-09 -9.04808e-10 -1.34434e-08 -5.24978e-09 -2.49747e-09 -1.54609e-08 -7.26765e-09 -4.26856e-08 -2.59659e-09 -2.97059e-09
          -8.00285e-09 -2.19483e-08 -2.41965e-09 -3.59335e-09 -1.78067e-09 -1.2498e-09 -1.02968e-09 -1.06179e-08 -4.62831e-09 -2.77019e-09 -1.47902e-08 -4.61408e-09
          -4.48219e-08 -3.30102e-09 -4.50528e-09 -8.97043e-09 -2.3526e-08 -3.4346e-09 -1.76422e-09 -9.5653e-10 -8.81378e-10 -9.46935e-10 -6.16318e-09 -4.24474e-09
          -2.98286e-09 -1.58816e-08 -4.46634e-09 -4.01454e-08 -5.46793e-09 -7.77877e-09 -1.24529e-08 -2.49557e-08 -4.34016e-09 -5.46592e-10 -4.0594e-10 -3.01214e-10
          -3.01777e-10 -1.71283e-09 -1.82745e-09 -1.49327e-09 -9.19982e-09 -4.61849e-09 -2.33565e-08 -1.00096e-08 -8.7607e-09 -9.97641e-09 -1.38898e-08 -2.33042e-09
        </DataArray>
        <DataArray type="Float32" Name="z[0]" NumberOfComponents="1" format="ascii">
          0.150578 0.150579 0.15058 0.150582 0.150582 0.150583 0.150584 0.150585 0.150585 0.150586 0.150587 0.150588
          0.150589 0.150591 0.150596 0.150581 0.150582 0.150583 0.150585 0.150586 0.150587 0.150587 0.150588 0.150588
          0.150589 0.15059 0.150591 0.150593 0.150595 0.150599 0.150584 0.150585 0.150587 0.150588 0.150589 0.15059
          0.151281 0.154821 0.150592 0.150593 0.150593 0.150595 0.150596 0.150598 0.150602 0.150588 0.150589 0.15059
          0.150591 0.168149 0.29356 0.387388 0.379826 0.150595 0.150596 0.150597 0.150598 0.150599 0.150601 0.150605
          0.150591 0.150592 0.245601 0.439349 0.45167 0.455159 0.433793 0.400179 0.150598 0.150599 0.1506 0.150601
          0.150602 0.150604 0.150609 0.150594 0.150596 0.23918 0.469089 0.481407 0.481828 0.462908 0.438357 0.159268