<?xml version="1.0"?>
<VTKFile type="UnstructuredGrid" version="0.1" byte_order="LittleEndian">
  <UnstructuredGrid>
    <Piece NumberOfCells="360" NumberOfPoints="800">
      <CellData Scalars="pressure[0]">
        <DataArray type="Float32" Name="pressure[0]" NumberOfComponents="1" format="ascii">
          2.10567e+07 2.10712e+07 2.17073e+07 2.23668e+07 2.27461e+07 2.31643e+07 2.32946e+07 2.33431e+07 2.3402e+07 2.3467e+07 2.36467e+07 2.39446e+07
          2.41654e+07 2.47744e+07 2.55029e+07 2.11013e+07 2.11154e+07 2.18185e+07 2.25134e+07 2.2927e+07 2.33437e+07 2.34391e+07 2.34769e+07 2.35374e+07
          2.36103e+07 2.38589e+07 2.41598e+07 2.43397e+07 2.49656e+07 2.56685e+07 2.11579e+07 2.11931e+07 2.19044e+07 2.26614e+07 2.30317e+07 2.34224e+07
          2.35366e+07 2.35914e+07 2.36693e+07 2.37686e+07 2.41035e+07 2.44443e+07 2.46245e+07 2.52059e+07 2.58771e+07 2.12768e+07 2.13227e+07 2.17726e+07
          2.27969e+07 2.31652e+07 2.35437e+07 2.36471e+07 2.36965e+07 2.38144e+07 2.39665e+07 2.44128e+07 2.48141e+07 2.49909e+07 2.54925e+07 2.6136e+07
          2.1409e+07 2.14322e+07 1.98033e+07 2.28992e+07 2.33641e+07 2.37627e+07 2.38294e+07 2.38657e+07 2.40511e+07 2.43292e+07 2.47978e+07 2.51667e+07
          2.53482e+07 2.58165e+07 2.63907e+07 2.16119e+07 2.16549e+07 2.22824e+07 2.34383e+07 2.37718e+07 2.40291e+07 2.40709e+07 2.41064e+07 2.43472e+07
          2.47698e+07 2.52385e+07 2.5484e+07 2.56807e+07 2.61425e+07 2.66759e+07 2.18735e+07 2.19243e+07 2.30141e+07 2.39254e+07 2.41367e+07 2.43114e+07
          2.43436e+07 2.43688e+07 2.46051e+07 2.51845e+07 2.56531e+07 2.57655e+07 2.59537e+07 2.64956e+07 2.70716e+07 2.22507e+07 2.23058e+07 2.34366e+07
          2.42805e+07 2.44737e+07 2.45988e+07 2.46343e+07 2.46936e+07 2.49631e+07 2.55438e+07 2.59333e+07 2.60225e+07 2.62743e+07 2.68621e+07 2.76168e+07
          2.28003e+07 2.28634e+07 2.37816e+07 2.45637e+07 2.47833e+07 2.48783e+07 2.49412e+07 2.51409e+07 2.54579e+07 2.59784e+07 2.6233e+07 2.62746e+07
          2.65327e+07 2.7281e+07 2.81617e+07 2.34675e+07 2.35705e+07 2.40814e+07 2.46695e+07 2.50423e+07 2.51222e+07 2.53271e+07 2.57988e+07 2.60523e+07
          2.64259e+07 2.66047e+07 2.66412e+07 2.69169e+07 2.77113e+07 2.84875e+07 2.42842e+07 2.44047e+07 2.46519e+07 2.49954e+07 2.52644e+07 2.53196e+07
          2.55465e+07 2.64189e+07 2.66296e+07 2.68559e+07 2.69913e+07 2.70405e+07 2.72841e+07 2.80815e+07 2.87288e+07 2.50196e+07 2.50906e+07 2.51999e+07
          2.53684e+07 2.55021e+07 2.55118e+07 2.58108e+07 2.70683e+07 2.71917e+07 2.7306e+07 2.7394e+07 2.74558e+07 2.77096e+07 2.84633e+07 2.89886e+07
          2.55759e+07 2.56257e+07 2.56639e+07 2.58752e+07 2.60298e+07 2.61019e+07 2.69049e+07 2.76379e+07 2.76774e+07 2.77829e+07 2.78645e+07 2.79794e+07
          2.82272e+07 2.88777e+07 2.97216e+07 2.60139e+07 2.6069e+07 2.61423e+07 2.64935e+07 2.67283e+07 2.70547e+07 2.76997e+07 2.82705e+07 2.83186e+07
          2.83361e+07 2.83382e+07 2.85063e+07 2.96563e+07 3.03506e+07 3.01733e+07 2.63503e+07 2.64181e+07 2.6709e+07 2.71911e+07 2.79471e+07 2.80478e+07
          2.84609e+07 2.88236e+07 2.88744e+07 2.89464e+07 2.90836e+07 2.99353e+07 3.06978e+07 3.08772e+07 3.07258e+07 2.6823e+07 2.68425e+07 2.73139e+07
          2.78798e+07 2.85703e+07 2.86575e+07 2.89676e+07 2.91806e+07 2.92328e+07 2.93143e+07 2.96365e+07 3.04768e+07 3.11075e+07 3.14545e+07 3.12524e+07
          2.77259e+07 2.77561e+07 2.79211e+07 2.88815e+07 2.91e+07 2.91415e+07 2.92894e+07 2.9423e+07 2.9473e+07 2.95396e+07 2.99901e+07 3.10007e+07
          3.168e+07 3.20179e+07 3.17365e+07 2.84597e+07 2.85165e+07 2.89042e+07 2.92605e+07 2.94169e+07 2.94621e+07 2.95726e+07 2.96675e+07 2.97199e+07
          2.97801e+07 3.03407e+07 3.14151e+07 3.21108e+07 3.23824e+07 3.22208e+07 2.88033e+07 2.88713e+07 2.91165e+07 2.94925e+07 2.96854e+07 2.97341e+07
          2.98269e+07 2.99069e+07 2.99545e+07 3.00122e+07 3.0631e+07 3.18226e+07 3.25368e+07 3.27347e+07 3.29022e+07 2.90732e+07 2.9133e+07 2.93571e+07
          2.97283e+07 2.99153e+07 2.99644e+07 3.00525e+07 3.01264e+07 3.01744e+07 3.02396e+07 3.08534e+07 3.21694e+07 3.29559e+07 3.31072e+07 3.35501e+07
          2.9295e+07 2.93644e+07 2.9541e+07 2.98826e+07 3.01164e+07 3.01714e+07 3.02652e+07 3.03423e+07 3.04095e+07 3.04945e+07 3.13667e+07 3.27762e+07
          3.33431e+07 3.35044e+07 3.40518e+07 2.95059e+07 2.95785e+07 2.97346e+07 3.00678e+07 3.0306e+07 3.03672e+07 3.04761e+07 3.05643e+07 3.0654e+07
          3.07537e+07 3.19345e+07 3.34002e+07 3.37456e+07 3.39462e+07 3.45403e+07 2.96953e+07 2.97606e+07 2.99513e+07 3.03027e+07 3.04954e+07 3.05671e+07
          3.0696e+07 3.07988e+07 3.09167e+07 3.10432e+07 3.24128e+07 3.39118e+07 3.42065e+07 3.44336e+07 3.48844e+07 2.98654e+07 2.9927e+07 3.00927e+07
          3.04448e+07 3.06941e+07 3.07679e+07 3.09137e+07 3.10341e+07 3.11795e+07 3.13527e+07 3.29436e+07 3.43536e+07 3.4682e+07 3.48859e+07 3.5186e+07
        </DataArray>
        <DataArray type="Float32" Name="pressure[1]" NumberOfComponents="1" format="ascii">
          2.10567e+07 2.10712e+07 2.17073e+07 2.23668e+07 2.27461e+07 2.31643e+07 2.32946e+07 2.33431e+07 2.3402e+07 2.3467e+07 2.36467e+07 2.39446e+07
          2.41654e+07 2.47744e+07 2.55029e+07 2.11013e+07 2.11154e+07 2.18185e+07 2.25134e+07 2.2927e+07 2.33437e+07 2.34391e+07 2.34769e+07 2.35374e+07
          2.36103e+07 2.38589e+07 2.41598e+07 2.43397e+07 2.49656e+07 2.56685e+07 2.11579e+07 2.11931e+07 2.19044e+07 2.26614e+07 2.30317e+07 2.34224e+07
          2.35366e+07 2.35914e+07 2.36693e+07 2.37686e+07 2.41035e+07 2.44443e+07 2.46245e+07 2.52059e+07 2.58771e+07 2.12768e+07 2.13227e+07 2.17726e+07
          2.27969e+07 2.31652e+07 2.35437e+07 2.36471e+07 2.36965e+07 2.38144e+07 2.39665e+07 2.44128e+07 2.48141e+07 2.49909e+07 2.54925e+07 2.6136e+07
          2.1409e+07 2.14322e+07 1.98033e+07 2.28992e+07 2.33641e+07 2.37627e+07 2.38294e+07 2.38657e+07 2.40511e+07 2.43292e+07 2.47978e+07 2.51667e+07
          2.53482e+07 2.58165e+07 2.63907e+07 2.16119e+07 2.16549e+07 2.22824e+07 2.34383e+07 2.37718e+07 2.40291e+07 2.40709e+07 2.41064e+07 2.43472e+07
          2.47698e+07 2.52385e+07 2.5484e+07 2.56807e+07 2.61425e+07 2.66759e+07 2.18735e+07 2.19243e+07 2.30141e+07 2.39254e+07 2.41367e+07 2.43114e+07
          2.43436e+07 2.43688e+07 2.46051e+07 2.51845e+07 2.56531e+07 2.57655e+07 2.59537e+07 2.64956e+07 2.70716e+07 2.22507e+07 2.23058e+07 2.34366e+07
          2.42805e+07 2.44737e+07 2.45988e+07 2.46343e+07 2.46936e+07 2.49631e+07 2.55438e+07 2.59333e+07 2.60225e+07 2.62743e+07 2.68621e+07 2.76168e+07
          2.28003e+07 2.28634e+07 2.37816e+07 2.45637e+07 2.47833e+07 2.48783e+07 2.49412e+07 2.51409e+07 2.54579e+07 2.59784e+07 2.6233e+07 2.62746e+07
          2.65327e+07 2.7281e+07 2.81617e+07 2.34675e+07 2.35705e+07 2.40814e+07 2.46695e+07 2.50423e+07 2.51222e+07 2.53271e+07 2.57988e+07 2.60523e+07
          2.64259e+07 2.66047e+07 2.66412e+07 2.69169e+07 2.77113e+07 2.84875e+07 2.42842e+07 2.44047e+07 2.46519e+07 2.49954e+07 2.52644e+07 2.53196e+07
          2.55465e+07 2.64189e+07 2.66296e+07 2.68559e+07 2.69913e+07 2.70405e+07 2.72841e+07 2.80815e+07 2.87288e+07 2.50196e+07 2.50906e+07 2.51999e+07
          2.53684e+07 2.55021e+07 2.55118e+07 2.58108e+07 2.70683e+07 2.71917e+07 2.7306e+07 2.7394e+07 2.74558e+07 2.77096e+07 2.84633e+07 2.89886e+07
          2.55759e+07 2.56257e+07 2.56639e+07 2.58752e+07 2.60298e+07 2.61019e+07 2.69049e+07 2.76379e+07 2.76774e+07 2.77829e+07 2.78645e+07 2.79794e+07
          2.82272e+07 2.88777e+07 2.97216e+07 2.60139e+07 2.6069e+07 2.61423e+07 2.64935e+07 2.67283e+07 2.70547e+07 2.76997e+07 2.82705e+07 2.83186e+07
          2.83361e+07 2.83382e+07 2.85063e+07 2.96563e+07 3.03506e+07 3.01733e+07 2.63503e+07 2.64181e+07 2.6709e+07 2.71911e+07 2.79471e+07 2.80478e+07
          2.84609e+07 2.88236e+07 2.88744e+07 2.89464e+07 2.90836e+07 2.99353e+07 3.06978e+07 3.08772e+07 3.07258e+07 2.6823e+07 2.68425e+07 2.73139e+07
          2.78798e+07 2.85703e+07 2.86575e+07 2.89676e+07 2.91806e+07 2.92328e+07 2.93143e+07 2.96365e+07 3.04768e+07 3.11075e+07 3.14545e+07 3.12524e+07
          2.77259e+07 2.77561e+07 2.79211e+07 2.88815e+07 2.91e+07 2.91415e+07 2.92894e+07 2.9423e+07 2.9473e+07 2.95396e+07 2.99901e+07 3.10007e+07
          3.168e+07 3.20179e+07 3.17365e+07 2.84597e+07 2.85165e+07 2.89042e+07 2.92605e+07 2.94169e+07 2.94621e+07 2.95726e+07 2.96675e+07 2.97199e+07
          2.97801e+07 3.03407e+07 3.14151e+07 3.21108e+07 3.23824e+07 3.22208e+07 2.88033e+07 2.88713e+07 2.91165e+07 2.94925e+07 2.96854e+07 2.97341e+07
          2.98269e+07 2.99069e+07 2.99545e+07 3.00122e+07 3.0631e+07 3.18226e+07 3.25368e+07 3.27347e+07 3.29022e+07 2.90732e+07 2.9133e+07 2.93571e+07
          2.97283e+07 2.99153e+07 2.99644e+07 3.00525e+07 3.01264e+07 3.01744e+07 3.02396e+07 3.08534e+07 3.21694e+07 3.29559e+07 3.31072e+07 3.35501e+07
          2.9295e+07 2.93644e+07 2.9541e+07 2.98826e+07 3.01164e+07 3.01714e+07 3.02652e+07 3.03423e+07 3.04095e+07 3.04945e+07 3.13667e+07 3.27762e+07
          3.33431e+07 3.35044e+07 3.40518e+07 2.95059e+07 2.95785e+07 2.97346e+07 3.00678e+07 3.0306e+07 3.03672e+07 3.04761e+07 3.05643e+07 3.0654e+07
          3.07537e+07 3.19345e+07 3.34002e+07 3.37456e+07 3.39462e+07 3.45403e+07 2.96953e+07 2.97606e+07 2.99513e+07 3.03027e+07 3.04954e+07 3.05671e+07
          3.0696e+07 3.07988e+07 3.09167e+07 3.10432e+07 3.24128e+07 3.39118e+07 3.42065e+07 3.44336e+07 3.48844e+07 2.98654e+07 2.9927e+07 3.00927e+07
          3.04448e+07 3.06941e+07 3.07679e+07 3.09137e+07 3.10341e+07 3.11795e+07 3.13527e+07 3.29436e+07 3.43536e+07 3.4682e+07 3.48859e+07 3.5186e+07
        </DataArray>
        <DataArray type="Float32" Name="pressure[2]" NumberOfComponents="1" format="ascii">
          2.10567e+07 2.10712e+07 2.17073e+07 2.23668e+07 2.27461e+07 2.31643e+07 2.32946e+07 2.33431e+07 2.3402e+07 2.3467e+07 2.36467e+07 2.39446e+07
          2.41654e+07 2.47744e+07 2.55029e+07 2.11013e+07 2.11154e+07 2.18185e+07 2.25134e+07 2.2927e+07 2.33437e+07 2.34391e+07 2.34769e+07 2.35374e+07
          2.36103e+07 2.38589e+07 2.41598e+07 2.43397e+07 2.49656e+07 2.56685e+07 2.11579e+07 2.11931e+07 2.19044e+07 2.26614e+07 2.30317e+07 2.34224e+07
          2.35366e+07 2.35914e+07 2.36693e+07 2.37686e+07 2.41035e+07 2.44443e+07 2.46245e+07 2.52059e+07 2.58771e+07 2.12768e+07 2.13227e+07 2.17726e+07
          2.27969e+07 2.31652e+07 2.35437e+07 2.36471e+07 2.36965e+07 2.38144e+07 2.39665e+07 2.44128e+07 2.48141e+07 2.49909e+07 2.54925e+07 2.6136e+07
          2.1409e+07 2.14322e+07 1.98033e+07 2.28992e+07 2.33641e+07 2.37627e+07 2.38294e+07 2.38657e+07 2.40511e+07 2.43292e+07 2.47978e+07 2.51667e+07
          2.53482e+07 2.58165e+07 2.63907e+07 2.16119e+07 2.16549e+07 2.22824e+07 2.34383e+07 2.37718e+07 2.40291e+07 2.40709e+07 2.41064e+07 2.43472e+07
          2.47698e+07 2.52385e+07 2.5484e+07 2.56807e+07 2.61425e+07 2.66759e+07 2.18735e+07 2.19243e+07 2.30141e+07 2.39254e+07 2.41367e+07 2.43114e+07
          2.43436e+07 2.43688e+07 2.46051e+07 2.51845e+07 2.56531e+07 2.57655e+07 2.59537e+07 2.64956e+07 2.70716e+07 2.22507e+07 2.23058e+07 2.34366e+07
          2.42805e+07 2.44737e+07 2.45988e+07 2.46343e+07 2.46936e+07 2.49631e+07 2.55438e+07 2.59333e+07 2.60225e+07 2.62743e+07 2.68621e+07 2.76168e+07
          2.28003e+07 2.28634e+07 2.37816e+07 2.45637e+07 2.47833e+07 2.48783e+07 2.49412e+07 2.51409e+07 2.54579e+07 2.59784e+07 2.6233e+07 2.62746e+07
          2.65327e+07 2.7281e+07 2.81617e+07 2.34675e+07 2.35705e+07 2.40814e+07 2.46695e+07 2.50423e+07 2.51222e+07 2.53271e+07 2.57988e+07 2.60523e+07
          2.64259e+07 2.66047e+07 2.66412e+07 2.69169e+07 2.77113e+07 2.84875e+07 2.42842e+07 2.44047e+07 2.46519e+07 2.49954e+07 2.52644e+07 2.53196e+07
          2.55465e+07 2.64189e+07 2.66296e+07 2.68559e+07 2.69913e+07 2.70405e+07 2.72841e+07 2.80815e+07 2.87288e+07 2.50196e+07 2.50906e+07 2.51999e+07
          2.53684e+07 2.55021e+07 2.55118e+07 2.58108e+07 2.70683e+07 2.71917e+07 2.7306e+07 2.7394e+07 2.74558e+07 2.77096e+07 2.84633e+07 2.89886e+07
          2.55759e+07 2.56257e+07 2.56639e+07 2.58752e+07 2.60298e+07 2.61019e+07 2.69049e+07 2.76379e+07 2.76774e+07 2.77829e+07 2.78645e+07 2.79794e+07
          2.82272e+07 2.88777e+07 2.97216e+07 2.60139e+07 2.6069e+07 2.61423e+07 2.64935e+07 2.67283e+07 2.70547e+07 2.76997e+07 2.82705e+07 2.83186e+07
          2.83361e+07 2.83382e+07 2.85063e+07 2.96563e+07 3.03506e+07 3.01733e+07 2.63503e+07 2.64181e+07 2.6709e+07 2.71911e+07 2.79471e+07 2.80478e+07
          2.84609e+07 2.88236e+07 2.88744e+07 2.89464e+07 2.90836e+07 2.99353e+07 3.06978e+07 3.08772e+07 3.07258e+07 2.6823e+07 2.68425e+07 2.73139e+07
          2.78798e+07 2.85703e+07 2.86575e+07 2.89676e+07 2.91806e+07 2.92328e+07 2.93143e+07 2.96365e+07 3.04768e+07 3.11075e+07 3.14545e+07 3.12524e+07
          2.77259e+07 2.77561e+07 2.79211e+07 2.88815e+07 2.91e+07 2.91415e+07 2.92894e+07 2.9423e+07 2.9473e+07 2.95396e+07 2.99901e+07 3.10007e+07
          3.168e+07 3.20179e+07 3.17365e+07 2.84597e+07 2.85165e+07 2.89042e+07 2.92605e+07 2.94169e+07 2.94621e+07 2.95726e+07 2.96675e+07 2.97199e+07
          2.97801e+07 3.03407e+07 3.14151e+07 3.21108e+07 3.23824e+07 3.22208e+07 2.88033e+07 2.88713e+07 2.91165e+07 2.94925e+07 2.96854e+07 2.97341e+07
          2.98269e+07 2.99069e+07 2.99545e+07 3.00122e+07 3.0631e+07 3.18226e+07 3.25368e+07 3.27347e+07 3.29022e+07 2.90732e+07 2.9133e+07 2.93571e+07
          2.97283e+07 2.99153e+07 2.99644e+07 3.00525e+07 3.01264e+07 3.01744e+07 3.02396e+07 3.08534e+07 3.21694e+07 3.29559e+07 3.31072e+07 3.35501e+07
          2.9295e+07 2.93644e+07 2.9541e+07 2.98826e+07 3.01164e+07 3.01714e+07 3.02652e+07 3.03423e+07 3.04095e+07 3.04945e+07 3.13667e+07 3.27762e+07
          3.33431e+07 3.35044e+07 3.40518e+07 2.95059e+07 2.95785e+07 2.97346e+07 3.00678e+07 3.0306e+07 3.03672e+07 3.04761e+07 3.05643e+07 3.0654e+07
          3.07537e+07 3.19345e+07 3.34002e+07 3.37456e+07 3.39462e+07 3.45403e+07 2.96953e+07 2.97606e+07 2.99513e+07 3.03027e+07 3.04954e+07 3.05671e+07
          3.0696e+07 3.07988e+07 3.09167e+07 3.10432e+07 3.24128e+07 3.39118e+07 3.42065e+07 3.44336e+07 3.48844e+07 2.98654e+07 2.9927e+07 3.00927e+07
          3.04448e+07 3.06941e+07 3.07679e+07 3.09137e+07 3.10341e+07 3.11795e+07 3.13527e+07 3.29436e+07 3.43536e+07 3.4682e+07 3.48859e+07 3.5186e+07
        </DataArray>
        <DataArray type="Float32" Name="velocity[0]" NumberOfComponents="1" format="ascii">
          -3.09677e-09 4.10954e-08 1.6957e-10 -4.19251e-09 -3.73707e-10 -1.44512e-09 -5.63144e-10 1.14648e-09 1.80529e-09 -3.6424e-10 -1.83174e-09 -2.51151e-09
          -1.70365e-09 -5.4881e-10 -2.56014e-09 -3.64733e-08 1.53364e-07 4.02691e-10 -1.87598e-08 -5.83136e-11 1.54673e-09 7.52949e-09 5.21553e-09 3.92e-09
          -2.36808e-09 -3.84631e-09 -1.08569e-08 -6.61646e-09 -1.69628e-09 -6.79652e-09 -3.84026e-08 1.97172e-07 1.12257e-09 1.10711e-09 4.24658e-10 4.44293e-09
          1.31851e-08 9.58897e-09 1.7546e-09 -5.96877e-09 -4.58218e-09 -2.78225e-08 -9.54787e-09 -3.66072e-09 -1.01993e-08 -1.07871e-08 1.77048e-07 7.22076e-09
          8.10842e-08 -1.62383e-09 -9.06635e-09 -6.48785e-09 -8.10309e-10 -4.40297e-09 -1.30329e-08 -5.99794e-09 -4.75671e-08 -6.81371e-09 -5.36806e-09 -1.39316e-08
          -9.25449e-08 -3.34177e-08 -2.82402e-10 -1.28808e-07 -1.47313e-08 -5.77392e-08 -6.54691e-08 -4.66596e-08 -6.99745e-09 -1.33609e-08 -8.25972e-09 -7.94653e-08
          -3.42306e-09 -4.92183e-09 -1.71819e-08 -1.82749e-07 -2.27922e-07 -8.10953e-09 -2.71695e-07 -3.28475e-08 -1.79507e-07 -1.03603e-07 -1.24136e-07 -4.5525e-09
          -5.9337e-09 -1.23415e-08 -1.15671e-07 -2.02164e-09 -3.92778e-09 -1.93639e-08 -1.83451e-07 -1.97534e-07 -2.43051e-09 -9.11737e-08 -3.29262e-08 -3.4406e-07
          -9.6162e-08 -1.46846e-07 -3.9905e-09 -2.65567e-09 -1.54942e-08 -1.41779e-07 -1.77244e-09 -3.88179e-09 -2.08729e-08 -1.6645e-07 -1.80642e-07 -2.00969e-09
          -1.64952e-08 -2.14873e-08 -4.35119e-07 -6.45602e-08 -1.57878e-07 -4.93103e-09 -2.38158e-09 -1.80028e-08 -1.61601e-07 -1.49593e-09 -4.02352e-09 -2.25732e-08
          -1.49767e-07 -1.62228e-07 -2.37413e-09 -2.51344e-09 -1.41573e-08 -4.34086e-07 -2.27138e-08 -2.43425e-07 -4.86687e-09 -2.90191e-09 -3.13086e-08 -1.59538e-07
          -1.48312e-09 -3.69412e-09 -2.48105e-08 -1.22124e-07 -1.4929e-07 -9.11291e-09 -5.6147e-10 -1.01105e-08 -3.98952e-07 -5.58524e-09 -3.52727e-07 -5.23686e-09
          -3.39235e-09 -5.43729e-08 -1.38269e-07 -2.4765e-09 -3.2304e-09 -2.70165e-08 -9.04518e-08 -1.42529e-07 -2.01453e-08 -1.41653e-09 -1.10983e-08 -3.53459e-07
          -1.85723e-09 -4.366e-07 -1.18598e-08 -5.02012e-09 -7.03591e-08 -1.14921e-07 -6.47471e-09 -3.79724e-09 -2.89502e-08 -7.25675e-08 -1.37723e-07 -2.79183e-08
          -1.45349e-09 -3.50314e-08 -2.88089e-07 -2.25466e-09 -4.22587e-07 -4.58031e-08 -9.58738e-09 -7.50608e-08 -8.45685e-08 -2.05309e-08 -6.94471e-09 -3.08952e-08
          -6.59553e-08 -1.40398e-07 -2.55173e-08 -3.1484e-09 -5.85264e-08 -2.2176e-07 -2.45654e-09 -4.14065e-07 -6.85995e-08 -2.09454e-08 -6.80641e-08 -4.20226e-08
          -3.35276e-08 -1.91097e-08 -3.32051e-08 -6.13448e-08 -1.48425e-07 -1.5505e-08 -6.44912e-09 -4.76336e-08 -2.09236e-07 -2.05467e-09 -4.56237e-07 -8.22095e-08
          -2.69811e-08 -4.0554e-08 -1.2643e-08 -3.60026e-08 -3.63958e-08 -3.3364e-08 -4.43376e-08 -1.5711e-07 -1.00053e-08 -1.02099e-08 -3.46265e-08 -2.26653e-07
          -1.64e-09 -4.53697e-07 -1.03664e-07 -2.72452e-08 -1.8518e-08 -5.7111e-09 -3.66345e-08 -5.08841e-08 -3.03639e-08 -4.86947e-08 -1.1781e-07 -9.92597e-09
          -1.0703e-08 -4.00484e-08 -2.38967e-07 -2.01848e-09 -3.96658e-07 -1.08696e-07 -3.32043e-08 -1.05652e-08 -6.31675e-09 -4.1444e-08 -7.1381e-08 -2.58308e-08
          -6.85271e-08 -6.18844e-08 -8.79984e-09 -9.02575e-09 -5.9035e-08 -2.18479e-07 -3.64882e-09 -3.18407e-07 -1.11371e-07 -5.13625e-08 -4.03742e-09 -5.72635e-09
          -3.3496e-08 -1.04139e-07 -2.06431e-08 -6.97602e-08 -4.51063e-08 -4.02162e-09 -5.287e-09 -8.61642e-08 -1.57698e-07 -5.36401e-09 -2.47696e-07 -1.23113e-07
          -8.07428e-08 -2.81911e-09 -3.81725e-09 -2.15636e-08 -1.35216e-07 -1.6176e-08 -6.37048e-08 -3.17522e-08 -2.03335e-09 -1.72308e-09 -1.04802e-07 -9.92812e-08
          -5.62721e-09 -1.8081e-07 -1.25432e-07 -1.30062e-07 -1.64268e-09 -3.13667e-09 -2.80669e-08 -1.54111e-07 -1.42062e-08 -5.318e-08 -2.1396e-08 -1.77575e-09
          -7.42209e-10 -1.10038e-07 -5.57775e-08 -4.67123e-09 -1.33499e-07 -8.21271e-08 -2.29172e-07 -2.90236e-09 -4.45877e-09 -4.17049e-08 -1.63201e-07 -1.533e-08
          -4.07202e-08 -1.43815e-08 -1.557e-09 -1.80205e-10 -1.01374e-07 -2.88612e-08 -3.98845e-09 -1.05642e-07 -3.46916e-08 -3.20266e-07 -4.56666e-09 -8.21516e-09
          -5.07441e-08 -1.70384e-07 -1.76526e-08 -2.56206e-08 -7.33321e-09 -2.43772e-09 -9.32338e-10 -7.45688e-08 -1.95244e-08 -3.91401e-09 -1.00883e-07 -1.89585e-08
          -3.39736e-07 -4.17193e-09 -1.57983e-08 -5.55277e-08 -1.77724e-07 -2.19319e-08 -1.19612e-08 -2.93194e-09 -1.09693e-09 -6.14862e-10 -3.71621e-08 -1.45745e-08
          -3.2282e-09 -1.07391e-07 -1.53558e-08 -2.9331e-07 -5.79284e-09 -2.72462e-08 -7.2728e-08 -1.85054e-07 -2.86581e-08 -3.16962e-09 -6.60793e-10 2.43005e-10
          9.24348e-11 -8.7761e-09 -5.56481e-09 -1.18502e-09 -5.49116e-08 -7.16554e-09 -1.26931e-07 -3.82219e-09 -1.6529e-08 -4.3404e-08 -9.50807e-08 -1.60946e-08
        </DataArray>
        <DataArray type="Float32" Name="velocity[1]" NumberOfComponents="1" format="ascii">
          4.81274e-25 6.51853e-24 9.5595e-26 -6.51565e-25 5.80784e-26 0 8.75191e-26 -1.37889e-25 5.72437e-26 5.46076e-24 -3.55503e-24 4.65627e-26
          2.33036e-24 -9.33265e-25 3.97487e-25 4.70583e-24 1.09597e-23 8.69789e-26 -1.61236e-24 -1.86191e-25 7.28771e-24 1.13723e-24 2.9629e-25 -6.89797e-24
          -1.48432e-25 0 -4.38869e-26 4.87672e-26 3.37553e-28 2.60507e-25 -4.40599e-24 -1.43465e-23 -1.78927e-24 4.6999e-24 -1.71875e-25 0
          3.95222e-25 -2.69926e-25 -3.84617e-25 0 6.76872e-24 -1.05825e-23 0 1.0742e-24 -2.68773e-25 2.67426e-25 1.22707e-23 -1.61351e-24
          -7.91194e-24 4.46519e-25 1.01661e-23 -2.05443e-23 2.49771e-23 -3.67069e-24 1.08348e-24 3.30914e-24 -4.37561e-24 2.93746e-24 -1.24761e-24 9.35315e-25
          -1.1071e-25 -6.76688e-23 6.29319e-24 1.17062e-23 -4.0821e-25 -5.93514e-24 1.09406e-25 -9.41629e-26 -3.86727e-27 -6.12657e-24 3.66631e-24 -7.2141e-24
          9.02353e-27 1.231e-25 -1.43186e-24 -1.47918e-25 7.21231e-24 -6.82553e-25 7.99222e-24 1.68608e-25 -1.35774e-23 0 -1.25182e-25 9.06106e-26
          3.98962e-25 -3.63828e-25 5.3538e-24 -1.37535e-24 8.11015e-25 1.43133e-24 -1.14433e-24 1.3626e-24 0 1.01538e-23 -9.55283e-25 -3.10987e-23
          -8.68831e-26 -9.20383e-26 -3.21868e-24 -4.0057e-27 6.94406e-27 7.34403e-27 3.1036e-26 -2.01582e-29 -1.57752e-24 -1.9408e-25 1.32841e-23 1.49408e-24
          3.32511e-24 -5.22492e-26 3.12973e-23 -5.21911e-26 -4.03485e-26 -4.57876e-26 -5.25589e-26 -3.67107e-24 -1.21919e-23 1.78024e-27 -3.48646e-25 1.84176e-24
          -1.46932e-24 -9.43116e-24 -9.04052e-26 -1.90674e-24 -3.80792e-25 5.35981e-24 0 0 -9.85585e-25 -1.71144e-27 1.1361e-24 2.70308e-24
          2.57414e-27 4.80875e-26 -2.4854e-28 -1.10038e-23 9.39727e-25 1.33446e-24 -1.28774e-25 -2.17479e-24 5.98705e-24 -1.10447e-23 8.63664e-24 9.80096e-25
          -4.88372e-26 -8.98005e-25 2.92253e-24 -7.9463e-25 0 -2.01408e-24 4.44043e-24 1.18366e-25 7.02108e-25 -1.30862e-25 1.73845e-24 -3.28125e-27
          -8.29177e-24 8.80759e-24 9.38774e-25 2.02289e-25 6.12707e-25 8.13053e-24 2.0133e-24 -2.60484e-25 1.30242e-25 -5.19638e-24 7.27715e-25 -5.10244e-25
          -9.8321e-26 2.77854e-24 -1.90966e-23 7.91011e-26 -6.57547e-24 -4.51586e-24 -5.06463e-25 -8.2794e-25 3.83263e-24 -1.80666e-24 1.07365e-24 -1.72675e-25
          5.05329e-24 1.05285e-23 0 -2.14721e-25 2.92492e-25 3.73294e-24 -4.77551e-26 5.25697e-24 7.93216e-25 3.61463e-29 -4.70547e-24 -1.48064e-24
          3.76365e-25 -7.28551e-25 -3.84514e-31 -5.74003e-25 9.52045e-28 8.41908e-25 -5.96464e-25 2.21196e-27 1.18506e-23 -1.4413e-26 1.30259e-24 2.8138e-24
          3.18098e-24 4.70544e-24 3.36673e-24 -4.92631e-24 -2.28121e-28 -2.51174e-24 -4.47956e-24 -1.26433e-23 -3.21394e-28 6.5026e-25 -2.82117e-26 1.14079e-27
          -4.97145e-26 -5.42517e-24 1.6593e-24 0 0 4.84232e-25 4.06716e-24 -4.70122e-25 4.71884e-24 0 6.97948e-24 0
          -7.26886e-25 8.70314e-25 1.212e-27 1.08534e-25 -7.17026e-24 -2.58591e-28 -4.07315e-28 -5.38979e-28 4.36515e-24 -8.73034e-28 -1.30814e-24 -2.20743e-24
          4.89457e-28 1.71159e-24 -1.57345e-28 5.10821e-26 2.07971e-24 -1.10717e-23 0 -1.15375e-23 0 5.01135e-28 3.21199e-24 -3.98497e-24
          -1.89263e-24 4.85683e-28 1.40114e-24 0 3.95276e-24 0 6.76273e-25 2.17018e-24 5.2462e-24 1.21921e-25 -5.99781e-24 -5.47484e-24
          -2.30881e-24 1.88352e-25 5.93206e-26 -2.12786e-28 -1.84509e-24 -1.1128e-24 4.55183e-24 -2.24432e-24 2.49553e-24 -2.08318e-24 7.59934e-25 9.61224e-24
          -8.0984e-26 -4.39687e-24 1.04481e-23 5.77493e-24 -3.47483e-24 7.61606e-26 9.72984e-25 -6.6269e-28 1.09501e-24 -1.18691e-28 -4.11376e-24 8.91689e-25
          -1.89867e-24 1.07169e-25 -2.96545e-24 -1.35381e-25 -5.9128e-24 -5.32656e-24 1.00493e-23 2.84823e-25 3.72487e-24 1.14606e-24 -3.85776e-25 -9.02573e-25
          -1.09754e-24 6.61639e-25 0 -4.20221e-26 -1.39995e-24 4.86377e-24 -8.55004e-24 8.54942e-24 -6.08345e-24 1.672e-27 0 0
          2.58788e-25 -8.89044e-28 1.45597e-24 -1.24912e-24 -1.31233e-24 1.21102e-24 -2.03366e-24 -9.29548e-25 -1.4003e-24 2.69761e-26 6.33762e-25 -3.97848e-24
          1.42194e-23 -2.71479e-25 -6.80306e-24 4.84135e-25 9.94319e-25 -2.68557e-28 -8.73731e-25 7.60009e-29 6.22539e-29 1.24419e-25 -3.04748e-24 5.35293e-25
          -1.33368e-25 1.08495e-23 -4.49496e-24 0 -2.87752e-25 -9.02726e-25 6.91933e-24 -7.94676e-25 0 -4.92587e-25 1.41422e-29 -4.00325e-25
          6.79584e-25 -1.36394e-24 -2.28675e-24 -3.68285e-25 -2.83403e-24 1.11361e-24 -3.08786e-23 0 3.09026e-23 -2.26928e-23 1.87689e-23 4.71886e-25
        </DataArray>
        <DataArray type="Float32" Name="velocity[2]" NumberOfComponents="1" format="ascii">
          -3.34304e-10 5.65764e-09 -3.53268e-09 -4.01901e-09 -3.04876e-09 -3.09335e-09 -2.81856e-09 -2.51319e-09 -2.50689e-09 -2.94327e-09 -3.02821e-09 -2.83798e-09
          -2.38691e-09 -1.92426e-09 -1.30566e-09 -4.3983e-09 2.75835e-08 -2.87172e-09 -5.65708e-09 -1.81837e-09 -1.73027e-09 -1.07956e-09 -1.77767e-09 -2.07436e-09
          -3.09556e-09 -3.23576e-09 -4.06921e-09 -2.71964e-09 -1.51705e-09 -1.75735e-09 -8.64218e-09 3.23985e-08 -8.20814e-10 -2.31871e-09 -3.86728e-09 -3.01748e-09
          -1.28849e-09 -1.86148e-09 -3.10341e-09 -4.19351e-09 -3.7884e-09 -7.16316e-09 -3.28356e-09 -2.02484e-09 -2.37448e-09 -1.83604e-09 3.09825e-08 2.51143e-10
          1.04017e-08 -6.48158e-09 -7.06785e-09 -5.57125e-09 -3.78745e-09 -3.85093e-09 -4.89858e-09 -3.37844e-09 -1.00754e-08 -2.47985e-09 -2.33975e-09 -3.12512e-09
          -1.08697e-08 7.98872e-10 -1.07424e-09 -3.10133e-08 -1.39931e-08 -1.91584e-08 -1.76269e-08 -1.22404e-08 -4.35571e-09 -5.73784e-09 -4.86671e-09 -1.58348e-08
          -1.10416e-09 -1.56662e-09 -3.44512e-09 -3.15492e-08 -3.99417e-08 -2.68115e-09 -5.52863e-08 -1.84753e-08 -3.98897e-08 -2.25754e-08 -2.51086e-08 -2.89933e-09
          -3.30376e-09 -4.37185e-09 -2.16574e-08 -8.80014e-10 -1.28397e-09 -3.72749e-09 -3.28395e-08 -3.60936e-08 -1.9755e-09 -2.07792e-08 -1.39862e-08 -6.53967e-08
          -1.79757e-08 -2.75231e-08 -2.80795e-09 -2.53556e-09 -4.79855e-09 -2.62514e-08 -7.61814e-10 -1.09372e-09 -3.87184e-09 -2.98356e-08 -3.32185e-08 -2.06788e-09
          -5.09989e-09 -6.73595e-09 -7.9309e-08 -1.41189e-08 -3.04655e-08 -2.63216e-09 -2.16024e-09 -4.77415e-09 -2.95719e-08 -9.77698e-10 -1.46014e-09 -4.35725e-09
          -2.68616e-08 -2.98622e-08 -1.97571e-09 -2.08711e-09 -4.40786e-09 -7.91566e-08 -7.57668e-09 -4.54149e-08 -1.93619e-09 -1.59613e-09 -5.88574e-09 -2.83034e-08
          -9.29907e-10 -1.33984e-09 -4.74422e-09 -2.2757e-08 -2.88904e-08 -3.69421e-09 -1.51564e-09 -3.20162e-09 -7.28932e-08 -4.6783e-09 -6.45059e-08 -1.71514e-09
          -1.34266e-09 -9.57332e-09 -2.43757e-08 -1.15225e-09 -1.27673e-09 -5.13014e-09 -1.67261e-08 -2.67739e-08 -4.87418e-09 -1.17751e-09 -2.77213e-09 -6.40881e-08
          -3.16442e-09 -7.90713e-08 -3.0573e-09 -1.43666e-09 -1.26412e-08 -2.08808e-08 -2.17269e-09 -1.3483e-09 -5.38424e-09 -1.3174e-08 -2.51581e-08 -5.62956e-09
          -6.63783e-10 -5.41952e-09 -5.08734e-08 -2.43818e-09 -7.76712e-08 -1.06859e-08 -2.49547e-09 -1.38779e-08 -1.66968e-08 -5.87499e-09 -2.36999e-09 -5.81822e-09
          -1.1691e-08 -2.463e-08 -4.61415e-09 -1.0912e-09 -1.06818e-08 -4.04736e-08 -2.92528e-09 -7.46118e-08 -1.30988e-08 -4.67804e-09 -1.31384e-08 -1.04001e-08
          -1.01181e-08 -5.79044e-09 -6.25232e-09 -1.10612e-08 -2.65054e-08 -3.29481e-09 -1.97966e-09 -9.82891e-09 -3.84713e-08 -1.41527e-09 -8.12666e-08 -1.39791e-08
          -3.20173e-09 -6.94382e-09 -3.67436e-09 -8.17377e-09 -6.98128e-09 -5.5358e-09 -8.70565e-09 -2.91979e-08 -3.07657e-09 -3.1193e-09 -7.34221e-09 -4.09313e-08
          -9.81302e-10 -8.09928e-08 -1.93961e-08 -5.66334e-09 -4.16025e-09 -2.06199e-09 -7.50702e-09 -8.82373e-09 -4.70195e-09 -7.40812e-09 -2.06624e-08 -3.79174e-09
          -3.90373e-09 -8.84667e-09 -4.33297e-08 -1.2349e-09 -7.20347e-08 -2.235e-08 -8.75543e-09 -4.99248e-09 -4.55014e-09 -1.03923e-08 -1.31285e-08 -3.6963e-09
          -1.19393e-08 -1.11743e-08 -2.55414e-09 -2.80014e-09 -1.0921e-08 -3.95721e-08 -2.91515e-09 -5.92489e-08 -2.35745e-08 -1.23926e-08 -3.50814e-09 -3.94709e-09
          -9.75803e-09 -1.98242e-08 -2.76958e-09 -1.23629e-08 -8.36538e-09 -1.63307e-09 -2.25094e-09 -1.59442e-08 -2.94064e-08 -4.12046e-09 -4.78437e-08 -2.62322e-08
          -1.74857e-08 -3.18905e-09 -3.41478e-09 -6.53933e-09 -2.45852e-08 -2.23405e-09 -1.15729e-08 -6.66093e-09 -1.75002e-09 -1.65073e-09 -1.95734e-08 -1.94784e-08
          -4.11738e-09 -3.5776e-08 -2.73067e-08 -2.72857e-08 -3.29812e-09 -3.62639e-09 -7.63393e-09 -2.82704e-08 -2.46701e-09 -9.73542e-09 -4.62952e-09 -1.3819e-09
          -1.31549e-09 -2.06111e-08 -1.19153e-08 -3.8057e-09 -2.70411e-08 -2.05464e-08 -4.59458e-08 -3.34471e-09 -3.39436e-09 -9.36154e-09 -2.99486e-08 -3.1161e-09
          -7.65108e-09 -3.69028e-09 -1.58636e-09 -1.27469e-09 -1.95853e-08 -7.64473e-09 -3.63082e-09 -2.17977e-08 -1.03115e-08 -6.03987e-08 -3.68215e-09 -4.21864e-09
          -1.14899e-08 -3.16215e-08 -3.47438e-09 -5.05357e-09 -2.50423e-09 -1.75949e-09 -1.44888e-09 -1.53584e-08 -6.67153e-09 -3.98449e-09 -2.097e-08 -6.56978e-09
          -6.35666e-08 -4.68809e-09 -6.41407e-09 -1.28732e-08 -3.38407e-08 -4.93251e-09 -2.48394e-09 -1.34706e-09 -1.24114e-09 -1.33325e-09 -8.86353e-09 -6.08713e-09
          -4.27001e-09 -2.25952e-08 -6.36275e-09 -5.70139e-08 -7.77414e-09 -1.10902e-08 -1.78223e-08 -3.5838e-08 -6.23066e-09 -7.70214e-10 -5.72163e-10 -4.2475e-10
          -4.25591e-10 -2.45282e-09 -2.61429e-09 -2.13326e-09 -1.31029e-08 -6.57755e-09 -3.32015e-08 -1.42382e-08 -1.24786e-08 -1.42476e-08 -1.99187e-08 -3.34408e-09
        </DataArray>
        <DataArray type="Float32" Name="z[0]" NumberOfComponents="1" format="ascii">
          0.150578 0.150579 0.15058 0.150582 0.150582 0.150583 0.150584 0.150585 0.150585 0.150586 0.150587 0.150588
          0.150589 0.150591 0.150596 0.150581 0.150582 0.150583 0.150585 0.150586 0.150587 0.150587 0.150588 0.150588
          0.150589 0.15059 0.150591 0.150593 0.150595 0.150599 0.150584 0.150585 0.150587 0.150588 0.150589 0.15059
          0.15059 0.150591 0.150592 0.150593 0.150593 0.150595 0.150596 0.150598 0.150602 0.150588 0.150589 0.15059
          0.150591 0.150592 0.150593 0.150594 0.150594 0.150595 0.150596 0.150597 0.150598 0.150599 0.150601 0.150605
          0.150591 0.150592 0.150593 0.150594 0.150595 0.150596 0.150597 0.150597 0.150598 0.150599 0.1506 0.150601
          0.150602 0.150604 0.150609 0.150594 0.150595 0.150596 0.150597 0.150598 0.150599 0.1506 0.150606 0.150601