<?xml version="1.0"?>
<VTKFile type="UnstructuredGrid" version="0.1" byte_order="LittleEndian">
  <UnstructuredGrid>
    <Piece NumberOfCells="360" NumberOfPoints="800">
      <CellData Scalars="pressure[0]">
        <DataArray type="Float32" Name="pressure[0]" NumberOfComponents="1" format="ascii">
          2.16376e+07 2.16522e+07 2.25108e+07 2.3213e+07 2.35783e+07 2.39479e+07 2.40613e+07 2.4104e+07 2.41583e+07 2.42172e+07 2.43613e+07 2.45914e+07
          2.47631e+07 2.52706e+07 2.59099e+07 2.1737e+07 2.17802e+07 2.2685e+07 2.33594e+07 2.3747e+07 2.41198e+07 2.42036e+07 2.42379e+07 2.42933e+07
          2.43574e+07 2.45495e+07 2.47809e+07 2.49231e+07 2.54534e+07 2.60714e+07 2.186e+07 2.19069e+07 2.28858e+07 2.35064e+07 2.38444e+07 2.42021e+07
          2.43054e+07 2.43536e+07 2.44233e+07 2.45044e+07 2.47626e+07 2.50193e+07 2.51725e+07 2.56737e+07 2.62685e+07 2.1983e+07 2.20303e+07 2.27079e+07
          2.36412e+07 2.39783e+07 2.4332e+07 2.44271e+07 2.44703e+07 2.45665e+07 2.46785e+07 2.50087e+07 2.53362e+07 2.54955e+07 2.59337e+07 2.65071e+07
          2.21078e+07 2.2123e+07 1.98625e+07 2.37341e+07 2.41783e+07 2.45578e+07 2.46202e+07 2.46525e+07 2.47843e+07 2.49761e+07 2.53393e+07 2.56429e+07
          2.58095e+07 2.62249e+07 2.67426e+07 2.23269e+07 2.23692e+07 2.32002e+07 2.4268e+07 2.45732e+07 2.48267e+07 2.48697e+07 2.49031e+07 2.50655e+07
          2.53756e+07 2.57278e+07 2.59216e+07 2.61015e+07 2.65161e+07 2.70036e+07 2.26171e+07 2.267e+07 2.38784e+07 2.47354e+07 2.49505e+07 2.51296e+07
          2.51724e+07 2.5208e+07 2.53598e+07 2.57533e+07 2.60778e+07 2.61697e+07 2.63422e+07 2.68288e+07 2.73567e+07 2.30333e+07 2.30924e+07 2.42281e+07
          2.50964e+07 2.5306e+07 2.54405e+07 2.54791e+07 2.55124e+07 2.56866e+07 2.60626e+07 2.63214e+07 2.63962e+07 2.66247e+07 2.7153e+07 2.78347e+07
          2.35618e+07 2.36275e+07 2.45253e+07 2.539e+07 2.56471e+07 2.57537e+07 2.58129e+07 2.58711e+07 2.60679e+07 2.64009e+07 2.65733e+07 2.66163e+07
          2.68487e+07 2.75218e+07 2.83135e+07 2.4108e+07 2.42007e+07 2.47115e+07 2.54464e+07 2.59336e+07 2.60273e+07 2.61537e+07 2.62788e+07 2.64549e+07
          2.673e+07 2.68711e+07 2.69137e+07 2.71659e+07 2.79009e+07 2.86096e+07 2.47895e+07 2.49028e+07 2.52132e+07 2.57529e+07 2.61712e+07 2.62427e+07
          2.64377e+07 2.66278e+07 2.67837e+07 2.70203e+07 2.71746e+07 2.72326e+07 2.74658e+07 2.82381e+07 2.88352e+07 2.55256e+07 2.56009e+07 2.57404e+07
          2.60976e+07 2.6403e+07 2.64519e+07 2.67181e+07 2.69741e+07 2.70923e+07 2.72987e+07 2.74763e+07 2.75696e+07 2.78481e+07 2.86063e+07 2.90751e+07
          2.60693e+07 2.61207e+07 2.61729e+07 2.64626e+07 2.67014e+07 2.67493e+07 2.70424e+07 2.73218e+07 2.74054e+07 2.7591e+07 2.78015e+07 2.80381e+07
          2.83857e+07 2.90055e+07 2.93172e+07 2.64934e+07 2.6543e+07 2.6601e+07 2.69085e+07 2.71207e+07 2.7167e+07 2.74112e+07 2.76501e+07 2.77329e+07
          2.78523e+07 2.80155e+07 2.84808e+07 2.90436e+07 2.94503e+07 2.9723e+07 2.68366e+07 2.68731e+07 2.70475e+07 2.73717e+07 2.75173e+07 2.75575e+07
          2.7673e+07 2.80577e+07 2.80943e+07 2.81628e+07 2.82945e+07 2.89399e+07 2.97091e+07 3.00908e+07 3.02422e+07 2.7146e+07 2.71901e+07 2.74372e+07
          2.7733e+07 2.7813e+07 2.78326e+07 2.79533e+07 2.83746e+07 2.84079e+07 2.84595e+07 2.88194e+07 2.97064e+07 3.03755e+07 3.0841e+07 3.07739e+07
          2.74608e+07 2.75135e+07 2.77796e+07 2.81006e+07 2.82085e+07 2.83172e+07 2.84758e+07 2.86232e+07 2.86717e+07 2.87377e+07 2.92352e+07 3.03666e+07
          3.11371e+07 3.15421e+07 3.12864e+07 2.77424e+07 2.7794e+07 2.80086e+07 2.84388e+07 2.86065e+07 2.86559e+07 2.87786e+07 2.88844e+07 2.89388e+07
          2.90011e+07 2.96371e+07 3.08655e+07 3.16625e+07 3.19673e+07 3.18122e+07 2.80726e+07 2.81367e+07 2.83464e+07 2.87119e+07 2.89035e+07 2.89522e+07
          2.90534e+07 2.91412e+07 2.91901e+07 2.925e+07 2.9961e+07 3.13372e+07 3.21597e+07 3.23716e+07 3.258e+07 2.83381e+07 2.83971e+07 2.86081e+07
          2.89671e+07 2.91501e+07 2.91991e+07 2.92939e+07 2.93739e+07 2.94233e+07 2.94921e+07 3.02018e+07 3.17316e+07 3.26419e+07 3.27989e+07 3.33159e+07
          2.85584e+07 2.86271e+07 2.87993e+07 2.91324e+07 2.93612e+07 2.94171e+07 2.95189e+07 2.9603e+07 2.96745e+07 2.97665e+07 3.07834e+07 3.24302e+07
          3.30845e+07 3.32548e+07 3.38876e+07 2.87685e+07 2.88406e+07 2.89947e+07 2.9323e+07 2.95578e+07 2.96213e+07 2.97414e+07 2.9839e+07 2.99367e+07
          3.00455e+07 3.14316e+07 3.31522e+07 3.35469e+07 3.37641e+07 3.44457e+07 2.89576e+07 2.90228e+07 2.92123e+07 2.95621e+07 2.97542e+07 2.98299e+07
          2.99737e+07 3.00889e+07 3.022e+07 3.03604e+07 3.19753e+07 3.37413e+07 3.40791e+07 3.4328e+07 3.48302e+07 2.91277e+07 2.91893e+07 2.93549e+07
          2.97089e+07 2.9961e+07 3.00389e+07 3.02026e+07 3.03385e+07 3.05028e+07 3.0699e+07 3.25807e+07 3.42448e+07 3.46242e+07 3.48467e+07 3.51632e+07
        </DataArray>
        <DataArray type="Float32" Name="pressure[1]" NumberOfComponents="1" format="ascii">
          2.16376e+07 2.16522e+07 2.25108e+07 2.3213e+07 2.35783e+07 2.39479e+07 2.40613e+07 2.4104e+07 2.41583e+07 2.42172e+07 2.43613e+07 2.45914e+07
          2.47631e+07 2.52706e+07 2.59099e+07 2.1737e+07 2.17802e+07 2.2685e+07 2.33594e+07 2.3747e+07 2.41198e+07 2.42036e+07 2.42379e+07 2.42933e+07
          2.43574e+07 2.45495e+07 2.47809e+07 2.49231e+07 2.54534e+07 2.60714e+07 2.186e+07 2.19069e+07 2.28858e+07 2.35064e+07 2.38444e+07 2.42021e+07
          2.43054e+07 2.43536e+07 2.44233e+07 2.45044e+07 2.47626e+07 2.50193e+07 2.51725e+07 2.56737e+07 2.62685e+07 2.1983e+07 2.20303e+07 2.27079e+07
          2.36412e+07 2.39783e+07 2.4332e+07 2.44271e+07 2.44703e+07 2.45665e+07 2.46785e+07 2.50087e+07 2.53362e+07 2.54955e+07 2.59337e+07 2.65071e+07
          2.21078e+07 2.2123e+07 1.98625e+07 2.37341e+07 2.41783e+07 2.45578e+07 2.46202e+07 2.46525e+07 2.47843e+07 2.49761e+07 2.53393e+07 2.56429e+07
          2.58095e+07 2.62249e+07 2.67426e+07 2.23269e+07 2.23692e+07 2.32002e+07 2.4268e+07 2.45732e+07 2.48267e+07 2.48697e+07 2.49031e+07 2.50655e+07
          2.53756e+07 2.57278e+07 2.59216e+07 2.61015e+07 2.65161e+07 2.70036e+07 2.26171e+07 2.267e+07 2.38784e+07 2.47354e+07 2.49505e+07 2.51296e+07
          2.51724e+07 2.5208e+07 2.53598e+07 2.57533e+07 2.60778e+07 2.61697e+07 2.63422e+07 2.68288e+07 2.73567e+07 2.30333e+07 2.30924e+07 2.42281e+07
          2.50964e+07 2.5306e+07 2.54405e+07 2.54791e+07 2.55124e+07 2.56866e+07 2.60626e+07 2.63214e+07 2.63962e+07 2.66247e+07 2.7153e+07 2.78347e+07
          2.35618e+07 2.36275e+07 2.45253e+07 2.539e+07 2.56471e+07 2.57537e+07 2.58129e+07 2.58711e+07 2.60679e+07 2.64009e+07 2.65733e+07 2.66163e+07
          2.68487e+07 2.75218e+07 2.83135e+07 2.4108e+07 2.42007e+07 2.47115e+07 2.54464e+07 2.59336e+07 2.60273e+07 2.61537e+07 2.62788e+07 2.64549e+07
          2.673e+07 2.68711e+07 2.69137e+07 2.71659e+07 2.79009e+07 2.86096e+07 2.47895e+07 2.49028e+07 2.52132e+07 2.57529e+07 2.61712e+07 2.62427e+07
          2.64377e+07 2.66278e+07 2.67837e+07 2.70203e+07 2.71746e+07 2.72326e+07 2.74658e+07 2.82381e+07 2.88352e+07 2.55256e+07 2.56009e+07 2.57404e+07
          2.60976e+07 2.6403e+07 2.64519e+07 2.67181e+07 2.69741e+07 2.70923e+07 2.72987e+07 2.74763e+07 2.75696e+07 2.78481e+07 2.86063e+07 2.90751e+07
          2.60693e+07 2.61207e+07 2.61729e+07 2.64626e+07 2.67014e+07 2.67493e+07 2.70424e+07 2.73218e+07 2.74054e+07 2.7591e+07 2.78015e+07 2.80381e+07
          2.83857e+07 2.90055e+07 2.93172e+07 2.64934e+07 2.6543e+07 2.6601e+07 2.69085e+07 2.71207e+07 2.7167e+07 2.74112e+07 2.76501e+07 2.77329e+07
          2.78523e+07 2.80155e+07 2.84808e+07 2.90436e+07 2.94503e+07 2.9723e+07 2.68366e+07 2.68731e+07 2.70475e+07 2.73717e+07 2.75173e+07 2.75575e+07
          2.7673e+07 2.80577e+07 2.80943e+07 2.81628e+07 2.82945e+07 2.89399e+07 2.97091e+07 3.00908e+07 3.02422e+07 2.7146e+07 2.71901e+07 2.74372e+07
          2.7733e+07 2.7813e+07 2.78326e+07 2.79533e+07 2.83746e+07 2.84079e+07 2.84595e+07 2.88194e+07 2.97064e+07 3.03755e+07 3.0841e+07 3.07739e+07
          2.74608e+07 2.75135e+07 2.77796e+07 2.81006e+07 2.82085e+07 2.83172e+07 2.84758e+07 2.86232e+07 2.86717e+07 2.87377e+07 2.92352e+07 3.03666e+07
          3.11371e+07 3.15421e+07 3.12864e+07 2.77424e+07 2.7794e+07 2.80086e+07 2.84388e+07 2.86065e+07 2.86559e+07 2.87786e+07 2.88844e+07 2.89388e+07
          2.90011e+07 2.96371e+07 3.08655e+07 3.16625e+07 3.19673e+07 3.18122e+07 2.80726e+07 2.81367e+07 2.83464e+07 2.87119e+07 2.89035e+07 2.89522e+07
          2.90534e+07 2.91412e+07 2.91901e+07 2.925e+07 2.9961e+07 3.13372e+07 3.21597e+07 3.23716e+07 3.258e+07 2.83381e+07 2.83971e+07 2.86081e+07
          2.89671e+07 2.91501e+07 2.91991e+07 2.92939e+07 2.93739e+07 2.94233e+07 2.94921e+07 3.02018e+07 3.17316e+07 3.26419e+07 3.27989e+07 3.33159e+07
          2.85584e+07 2.86271e+07 2.87993e+07 2.91324e+07 2.93612e+07 2.94171e+07 2.95189e+07 2.9603e+07 2.96745e+07 2.97665e+07 3.07834e+07 3.24302e+07
          3.30845e+07 3.32548e+07 3.38876e+07 2.87685e+07 2.88406e+07 2.89947e+07 2.9323e+07 2.95578e+07 2.96213e+07 2.97414e+07 2.9839e+07 2.99367e+07
          3.00455e+07 3.14316e+07 3.31522e+07 3.35469e+07 3.37641e+07 3.44457e+07 2.89576e+07 2.90228e+07 2.92123e+07 2.95621e+07 2.97542e+07 2.98299e+07
          2.99737e+07 3.00889e+07 3.022e+07 3.03604e+07 3.19753e+07 3.37413e+07 3.40791e+07 3.4328e+07 3.48302e+07 2.91277e+07 2.91893e+07 2.93549e+07
          2.97089e+07 2.9961e+07 3.00389e+07 3.02026e+07 3.03385e+07 3.05028e+07 3.0699e+07 3.25807e+07 3.42448e+07 3.46242e+07 3.48467e+07 3.51632e+07
        </DataArray>
        <DataArray type="Float32" Name="pressure[2]" NumberOfComponents="1" format="ascii">
          2.16376e+07 2.16522e+07 2.25108e+07 2.3213e+07 2.35783e+07 2.39479e+07 2.40613e+07 2.4104e+07 2.41583e+07 2.42172e+07 2.43613e+07 2.45914e+07
          2.47631e+07 2.52706e+07 2.59099e+07 2.1737e+07 2.17802e+07 2.2685e+07 2.33594e+07 2.3747e+07 2.41198e+07 2.42036e+07 2.42379e+07 2.42933e+07
          2.43574e+07 2.45495e+07 2.47809e+07 2.49231e+07 2.54534e+07 2.60714e+07 2.186e+07 2.19069e+07 2.28858e+07 2.35064e+07 2.38444e+07 2.42021e+07
          2.43054e+07 2.43536e+07 2.44233e+07 2.45044e+07 2.47626e+07 2.50193e+07 2.51725e+07 2.56737e+07 2.62685e+07 2.1983e+07 2.20303e+07 2.27079e+07
          2.36412e+07 2.39783e+07 2.4332e+07 2.44271e+07 2.44703e+07 2.45665e+07 2.46785e+07 2.50087e+07 2.53362e+07 2.54955e+07 2.59337e+07 2.65071e+07
          2.21078e+07 2.2123e+07 1.98625e+07 2.37341e+07 2.41783e+07 2.45578e+07 2.46202e+07 2.46525e+07 2.47843e+07 2.49761e+07 2.53393e+07 2.56429e+07
          2.58095e+07 2.62249e+07 2.67426e+07 2.23269e+07 2.23692e+07 2.32002e+07 2.4268e+07 2.45732e+07 2.48267e+07 2.48697e+07 2.49031e+07 2.50655e+07
          2.53756e+07 2.57278e+07 2.59216e+07 2.61015e+07 2.65161e+07 2.70036e+07 2.26171e+07 2.267e+07 2.38784e+07 2.47354e+07 2.49505e+07 2.51296e+07
          2.51724e+07 2.5208e+07 2.53598e+07 2.57533e+07 2.60778e+07 2.61697e+07 2.63422e+07 2.68288e+07 2.73567e+07 2.30333e+07 2.30924e+07 2.42281e+07
          2.50964e+07 2.5306e+07 2.54405e+07 2.54791e+07 2.55124e+07 2.56866e+07 2.60626e+07 2.63214e+07 2.63962e+07 2.66247e+07 2.7153e+07 2.78347e+07
          2.35618e+07 2.36275e+07 2.45253e+07 2.539e+07 2.56471e+07 2.57537e+07 2.58129e+07 2.58711e+07 2.60679e+07 2.64009e+07 2.65733e+07 2.66163e+07
          2.68487e+07 2.75218e+07 2.83135e+07 2.4108e+07 2.42007e+07 2.47115e+07 2.54464e+07 2.59336e+07 2.60273e+07 2.61537e+07 2.62788e+07 2.64549e+07
          2.673e+07 2.68711e+07 2.69137e+07 2.71659e+07 2.79009e+07 2.86096e+07 2.47895e+07 2.49028e+07 2.52132e+07 2.57529e+07 2.61712e+07 2.62427e+07
          2.64377e+07 2.66278e+07 2.67837e+07 2.70203e+07 2.71746e+07 2.72326e+07 2.74658e+07 2.82381e+07 2.88352e+07 2.55256e+07 2.56009e+07 2.57404e+07
          2.60976e+07 2.6403e+07 2.64519e+07 2.67181e+07 2.69741e+07 2.70923e+07 2.72987e+07 2.74763e+07 2.75696e+07 2.78481e+07 2.86063e+07 2.90751e+07
          2.60693e+07 2.61207e+07 2.61729e+07 2.64626e+07 2.67014e+07 2.67493e+07 2.70424e+07 2.73218e+07 2.74054e+07 2.7591e+07 2.78015e+07 2.80381e+07
          2.83857e+07 2.90055e+07 2.93172e+07 2.64934e+07 2.6543e+07 2.6601e+07 2.69085e+07 2.71207e+07 2.7167e+07 2.74112e+07 2.76501e+07 2.77329e+07
          2.78523e+07 2.80155e+07 2.84808e+07 2.90436e+07 2.94503e+07 2.9723e+07 2.68366e+07 2.68731e+07 2.70475e+07 2.73717e+07 2.75173e+07 2.75575e+07
          2.7673e+07 2.80577e+07 2.80943e+07 2.81628e+07 2.82945e+07 2.89399e+07 2.97091e+07 3.00908e+07 3.02422e+07 2.7146e+07 2.71901e+07 2.74372e+07
          2.7733e+07 2.7813e+07 2.78326e+07 2.79533e+07 2.83746e+07 2.84079e+07 2.84595e+07 2.88194e+07 2.97064e+07 3.03755e+07 3.0841e+07 3.07739e+07
          2.74608e+07 2.75135e+07 2.77796e+07 2.81006e+07 2.82085e+07 2.83172e+07 2.84758e+07 2.86232e+07 2.86717e+07 2.87377e+07 2.92352e+07 3.03666e+07
          3.11371e+07 3.15421e+07 3.12864e+07 2.77424e+07 2.7794e+07 2.80086e+07 2.84388e+07 2.86065e+07 2.86559e+07 2.87786e+07 2.88844e+07 2.89388e+07
          2.90011e+07 2.96371e+07 3.08655e+07 3.16625e+07 3.19673e+07 3.18122e+07 2.80726e+07 2.81367e+07 2.83464e+07 2.87119e+07 2.89035e+07 2.89522e+07
          2.90534e+07 2.91412e+07 2.91901e+07 2.925e+07 2.9961e+07 3.13372e+07 3.21597e+07 3.23716e+07 3.258e+07 2.83381e+07 2.83971e+07 2.86081e+07
          2.89671e+07 2.91501e+07 2.91991e+07 2.92939e+07 2.93739e+07 2.94233e+07 2.94921e+07 3.02018e+07 3.17316e+07 3.26419e+07 3.27989e+07 3.33159e+07
          2.85584e+07 2.86271e+07 2.87993e+07 2.91324e+07 2.93612e+07 2.94171e+07 2.95189e+07 2.9603e+07 2.96745e+07 2.97665e+07 3.07834e+07 3.24302e+07
          3.30845e+07 3.32548e+07 3.38876e+07 2.87685e+07 2.88406e+07 2.89947e+07 2.9323e+07 2.95578e+07 2.96213e+07 2.97414e+07 2.9839e+07 2.99367e+07
          3.00455e+07 3.14316e+07 3.31522e+07 3.35469e+07 3.37641e+07 3.44457e+07 2.89576e+07 2.90228e+07 2.92123e+07 2.95621e+07 2.97542e+07 2.98299e+07
          2.99737e+07 3.00889e+07 3.022e+07 3.03604e+07 3.19753e+07 3.37413e+07 3.40791e+07 3.4328e+07 3.48302e+07 2.91277e+07 2.91893e+07 2.93549e+07
          2.97089e+07 2.9961e+07 3.00389e+07 3.02026e+07 3.03385e+07 3.05028e+07 3.0699e+07 3.25807e+07 3.42448e+07 3.46242e+07 3.48467e+07 3.51632e+07
        </DataArray>
        <DataArray type="Float32" Name="velocity[0]" NumberOfComponents="1" format="ascii">
          -1.19213e-08 7.32487e-08 -3.75785e-10 -1.53105e-09 -3.2341e-10 -1.46033e-09 -1.25464e-10 1.59113e-09 2.61146e-09 4.18293e-10 -1.51068e-09 -1.95511e-09
          -1.06925e-09 -4.55436e-10 -2.1158e-09 -2.58799e-08 1.95625e-07 -7.06098e-10 -1.07705e-08 2.17029e-10 2.22648e-09 9.30011e-09 6.82553e-09 5.98378e-09
          -3.66702e-10 -3.23852e-09 -8.28981e-09 -4.92216e-09 -1.36844e-09 -5.61132e-09 -2.25264e-08 2.59238e-07 7.65247e-10 2.18905e-08 7.33989e-10 4.83744e-09
          1.37571e-08 1.05062e-08 3.23046e-09 -3.76756e-09 -3.51343e-09 -2.12667e-08 -7.58739e-09 -2.96221e-09 -8.42472e-09 -9.10526e-09 2.79631e-07 1.0058e-08
          1.27317e-07 -2.25353e-09 -1.47826e-08 -1.56115e-08 -9.37494e-09 -4.16368e-09 -1.0631e-08 -4.44735e-09 -3.68881e-08 -5.47492e-09 -4.38813e-09 -1.15343e-08
          -1.07631e-07 -1.83425e-08 -1.04494e-09 -1.79151e-07 -2.23392e-08 -8.79181e-08 -9.55474e-08 -8.81802e-08 -7.05006e-09 -1.13759e-08 -6.64885e-09 -6.2e-08
          -2.71952e-09 -4.01457e-09 -1.42545e-08 -2.23587e-07 -2.88361e-07 -1.18675e-08 -3.778e-07 -4.72065e-08 -2.73695e-07 -1.45959e-07 -2.3692e-07 -5.22943e-09
          -5.14493e-09 -9.71849e-09 -8.89225e-08 -1.56436e-09 -3.17948e-09 -1.60951e-08 -2.19217e-07 -2.39856e-07 -2.81448e-09 -1.18721e-07 -4.29652e-08 -4.72352e-07
          -1.24821e-07 -4.16779e-07 -4.2468e-09 -2.19868e-09 -1.15906e-08 -1.05752e-07 -1.368e-09 -3.14366e-09 -1.73793e-08 -1.92212e-07 -2.09471e-07 -2.02464e-09
          -1.94404e-08 -2.56858e-08 -5.48783e-07 -7.70869e-08 -5.786e-07 -3.76629e-09 -1.69733e-09 -1.28363e-08 -1.16516e-07 -1.13486e-09 -3.27944e-09 -1.88379e-08
          -1.67209e-07 -1.81695e-07 -1.52276e-09 -2.48624e-09 -1.71333e-08 -5.50083e-07 -3.02838e-08 -7.11119e-07 -2.98089e-09 -1.85576e-09 -2.141e-08 -1.11802e-07
          -1.06228e-09 -3.03094e-09 -2.07645e-08 -1.31683e-07 -1.61911e-07 -7.2598e-09 -6.14281e-11 -1.2313e-08 -5.22019e-07 -9.80055e-09 -8.43191e-07 -2.50743e-09
          -1.89507e-09 -3.62666e-08 -9.53169e-08 -1.75729e-09 -2.70675e-09 -2.26819e-08 -9.31243e-08 -1.48632e-07 -1.85025e-08 -1.25723e-09 -1.15231e-08 -4.85502e-07
          -3.23697e-09 -9.51038e-07 -4.79282e-09 -2.3535e-09 -4.46468e-08 -8.02948e-08 -5.26853e-09 -3.44567e-09 -2.43792e-08 -7.15887e-08 -1.36628e-07 -2.57566e-08
          -1.03975e-09 -1.77751e-08 -4.55432e-07 -2.48527e-09 -9.49187e-07 -2.31849e-08 -4.27912e-09 -4.38626e-08 -6.49337e-08 -2.16317e-08 -7.07366e-09 -2.60381e-08
          -6.3421e-08 -1.3268e-07 -2.25071e-08 -1.98403e-09 -2.74443e-08 -3.96419e-07 -3.22848e-09 -8.40643e-07 -8.25736e-08 -7.32435e-09 -2.76368e-08 -3.57459e-08
          -5.53099e-08 -2.06299e-08 -2.79846e-08 -6.08565e-08 -1.36407e-07 -1.24403e-08 -3.8767e-09 -3.63338e-08 -3.36089e-07 -2.74519e-09 -5.28142e-07 -1.99093e-07
          -2.67148e-08 -1.76032e-08 -1.18658e-08 -7.49811e-08 -4.44734e-08 -2.92979e-08 -6.64876e-08 -1.22441e-07 -6.36424e-09 -5.00703e-09 -4.91891e-08 -3.11308e-07
          -2.23503e-09 -2.83561e-07 -2.4194e-07 -5.72218e-08 -1.8671e-08 -8.03918e-09 -7.47618e-08 -6.96555e-08 -2.9198e-08 -7.52801e-08 -9.47178e-08 -4.76351e-09
          -8.62333e-09 -9.38249e-08 -2.52407e-07 -4.36806e-09 -3.2886e-07 -1.77444e-07 -6.81181e-08 -1.07244e-08 -9.2354e-09 -7.09658e-08 -9.78016e-08 -2.70474e-08
          -7.42942e-08 -7.03701e-08 -3.99474e-09 -9.59033e-09 -1.19827e-07 -2.07341e-07 -5.68734e-09 -3.59431e-07 -1.40386e-07 -7.53801e-08 -5.24173e-09 -7.7816e-09
          -4.76581e-08 -1.36838e-07 -2.28092e-08 -6.75695e-08 -4.77575e-08 -4.00931e-09 -5.00849e-09 -1.17824e-07 -1.81783e-07 -6.38806e-09 -2.98358e-07 -1.50858e-07
          -1.01059e-07 -3.56058e-09 -4.9503e-09 -2.81858e-08 -1.73263e-07 -1.85116e-08 -6.0043e-08 -3.03893e-08 -4.065e-09 -2.45137e-09 -1.30788e-07 -1.21349e-07
          -6.86564e-09 -2.20296e-07 -1.53023e-07 -1.58796e-07 -2.08173e-09 -3.94128e-09 -3.51486e-08 -1.94602e-07 -1.6659e-08 -5.14446e-08 -2.10633e-08 -2.25216e-09
          -1.04265e-09 -1.36088e-07 -6.87314e-08 -5.73422e-09 -1.63642e-07 -9.992e-08 -2.7675e-07 -3.51575e-09 -5.43794e-09 -5.18399e-08 -2.04279e-07 -1.82911e-08
          -3.99032e-08 -1.41563e-08 -1.75079e-09 -3.2896e-10 -1.25288e-07 -3.55243e-08 -4.89283e-09 -1.29678e-07 -4.20317e-08 -3.84588e-07 -5.45675e-09 -9.92995e-09
          -6.31655e-08 -2.11765e-07 -2.1329e-08 -2.52881e-08 -7.28933e-09 -2.51744e-09 -1.01881e-09 -9.18913e-08 -2.38463e-08 -4.75124e-09 -1.22379e-07 -2.28263e-08
          -4.06703e-07 -5.0089e-09 -1.92267e-08 -6.89119e-08 -2.19678e-07 -2.66583e-08 -1.18762e-08 -2.94458e-09 -1.13554e-09 -6.79305e-10 -4.54626e-08 -1.75923e-08
          -3.87571e-09 -1.28467e-07 -1.83662e-08 -3.504e-07 -6.96346e-09 -3.32135e-08 -8.92059e-08 -2.27559e-07 -3.49522e-08 -3.15893e-09 -6.67828e-10 2.26892e-10
          6.68387e-11 -1.05694e-08 -6.66962e-09 -1.41291e-09 -6.52658e-08 -8.54517e-09 -1.51485e-07 -4.58922e-09 -2.01394e-08 -5.29551e-08 -1.16619e-07 -1.96454e-08
        </DataArray>
        <DataArray type="Float32" Name="velocity[1]" NumberOfComponents="1" format="ascii">
          1.8527e-24 1.21393e-23 5.78463e-25 -2.37943e-25 5.02617e-26 0 1.94986e-26 -4.54994e-26 3.38827e-25 4.95051e-24 -3.61357e-24 1.81102e-25
          2.0693e-24 -7.3361e-25 3.26825e-25 3.16633e-25 7.00756e-24 5.20373e-25 -1.19797e-24 -4.6909e-25 7.64232e-24 2.79478e-25 -2.23266e-25 -7.03716e-24
          -6.22235e-25 0 -2.98096e-25 -9.1113e-27 -4.99568e-30 2.14424e-25 -8.37805e-25 -1.46486e-23 -2.52118e-24 6.27387e-24 -5.801e-25 0
          4.17753e-25 -1.99973e-25 -5.46146e-25 0 5.4514e-24 -8.35009e-24 0 8.99143e-25 -2.2676e-25 -1.98805e-24 2.02979e-23 -1.88273e-24
          -1.2366e-23 4.98476e-25 1.273e-23 -2.07348e-23 2.7603e-23 -3.37195e-24 1.46746e-24 2.60717e-24 -3.55714e-24 2.49875e-24 -1.04971e-24 7.83326e-25
          -4.54051e-25 -9.4453e-23 8.75797e-24 1.55679e-23 -8.05111e-25 -9.44426e-24 2.45692e-25 -3.01269e-25 -3.45085e-25 -4.68041e-24 3.13481e-24 -5.62099e-24
          -1.26462e-28 1.01779e-25 -1.18881e-24 -5.42548e-25 1.05248e-23 -6.9484e-25 1.3144e-23 3.43368e-25 -2.01778e-23 0 -3.15819e-27 1.25238e-25
          3.57496e-25 -2.74582e-25 4.28806e-24 -1.19131e-24 7.03945e-25 1.18488e-24 -1.58056e-24 2.99393e-24 0 1.3977e-23 -1.80365e-24 -3.32692e-23
          -4.85484e-27 -3.78972e-27 -2.02923e-24 1.70716e-27 -1.13905e-27 -1.06251e-27 3.22109e-26 -1.57142e-27 -1.31256e-24 -5.33108e-25 1.54687e-23 1.78289e-24
          4.0595e-24 -3.05429e-27 4.09008e-23 -3.69594e-27 -4.42973e-27 9.68753e-26 -2.28255e-26 -2.40788e-24 -8.49021e-24 -1.67896e-27 -3.08062e-25 1.53924e-24
          -2.2644e-24 -9.99928e-24 -2.41178e-25 -2.27181e-24 -4.5438e-25 5.08947e-24 0 0 -5.22024e-25 1.98863e-27 7.34388e-25 2.32605e-24
          -3.57979e-27 3.56276e-26 -1.37471e-27 -1.20786e-23 1.64631e-24 1.75512e-24 -2.22131e-25 -2.92785e-24 6.74387e-24 -1.26514e-23 1.10965e-23 6.93092e-25
          -4.64109e-27 -6.51353e-25 2.26923e-24 -7.27319e-25 0 -1.68781e-24 4.25859e-24 7.01338e-27 7.59614e-25 -1.15258e-25 2.44641e-24 3.49217e-27
          -8.49835e-24 1.13497e-23 3.62402e-25 7.11484e-26 7.36372e-25 5.16127e-24 1.89076e-24 -2.31099e-25 1.15549e-25 -5.03961e-24 2.00576e-24 -3.71271e-25
          -1.64549e-26 -8.32583e-25 -3.4188e-23 4.4359e-26 -5.95139e-24 -3.28728e-25 -2.32989e-25 -2.42773e-24 4.30126e-24 -1.82388e-24 1.05731e-24 -1.44525e-25
          4.81539e-24 1.01154e-23 0 -1.40622e-25 6.99406e-25 6.7834e-24 6.76621e-26 -1.09068e-23 -6.72854e-24 -2.91555e-27 -1.02126e-24 -1.23542e-24
          3.18105e-24 -7.69572e-25 1.0215e-27 -1.75718e-25 1.26313e-27 7.17976e-25 -3.05485e-25 -2.4718e-27 2.703e-23 -1.49556e-25 -3.76498e-23 1.75187e-23
          -1.15941e-23 1.02375e-24 6.40607e-24 -1.10848e-23 -9.46807e-28 -2.29997e-24 -4.64029e-24 -8.33512e-24 -7.60657e-28 3.78002e-25 1.31738e-24 1.6688e-27
          6.69717e-26 -2.74631e-24 1.06397e-24 0 0 6.08674e-25 1.0244e-23 -1.75558e-24 4.53753e-24 0 1.95183e-24 0
          -9.40018e-25 5.61799e-24 1.42371e-27 2.64526e-25 7.39636e-24 3.92728e-27 3.19705e-27 1.69611e-28 4.65848e-24 2.55894e-27 -1.9501e-24 -2.23845e-24
          5.15357e-28 1.83151e-24 -3.20631e-28 3.89866e-25 -1.57912e-24 -1.23824e-23 0 -1.00195e-23 0 -1.38776e-27 3.58025e-24 -4.55338e-24
          -2.93796e-24 -1.1635e-28 1.57996e-24 0 4.55214e-24 0 5.508e-25 2.39519e-24 3.5836e-24 1.67636e-25 -6.84608e-24 -7.10308e-24
          -2.58516e-24 2.43927e-25 1.21492e-25 5.73535e-28 -2.08898e-24 -1.29695e-24 4.36897e-24 -1.81016e-24 2.20486e-24 -2.01404e-24 7.47559e-25 1.16898e-23
          -9.34279e-26 -5.28565e-24 1.27639e-23 6.70466e-24 -4.01867e-24 9.62623e-26 1.16945e-24 -2.97289e-28 1.29205e-24 -3.38758e-29 -3.83344e-24 8.19645e-25
          -1.86065e-24 1.52365e-25 -3.65762e-24 -1.64154e-25 -7.03783e-24 -6.509e-24 1.19461e-23 3.30976e-25 4.37364e-24 1.42527e-24 -5.17103e-25 -1.0335e-24
          -1.05083e-24 6.42035e-25 0 -3.30163e-26 -1.75484e-24 5.50322e-24 -9.67884e-24 9.68071e-24 -7.10572e-24 1.63718e-27 0 0
          3.35219e-25 -9.34847e-28 1.76418e-24 -1.22054e-24 -1.27408e-24 1.18438e-24 -1.99818e-24 -1.63103e-24 -1.69693e-24 2.5101e-26 6.25164e-25 -4.61197e-24
          1.66962e-23 -3.29348e-25 -8.09785e-24 5.57467e-25 1.2307e-24 8.51731e-29 -8.63625e-25 -1.99412e-28 -3.48804e-28 1.24893e-25 -3.78074e-24 6.61654e-25
          -1.63165e-25 1.25552e-23 -5.23916e-24 0 -3.44234e-25 -1.09737e-24 8.17457e-24 -8.82796e-25 0 -4.91176e-25 -2.48251e-28 -4.03383e-25
          6.88119e-25 -1.64194e-24 -2.61701e-24 -4.41695e-25 -3.52893e-24 1.32802e-24 -3.6692e-23 0 3.69355e-23 -2.73905e-23 2.28388e-23 5.76262e-25
        </DataArray>
        <DataArray type="Float32" Name="velocity[2]" NumberOfComponents="1" format="ascii">
          -1.08309e-09 1.15349e-08 -4.51171e-09 -4.13232e-09 -3.54143e-09 -3.39053e-09 -2.87781e-09 -2.50697e-09 -2.36074e-09 -2.70702e-09 -2.76978e-09 -2.44987e-09
          -1.93359e-09 -1.57595e-09 -1.08264e-09 -4.19936e-09 3.29689e-08 -3.61904e-09 -4.60287e-09 -2.09196e-09 -1.7855e-09 -8.40679e-10 -1.5261e-09 -1.65724e-09
          -2.56826e-09 -2.85872e-09 -3.28384e-09 -2.13048e-09 -1.24592e-09 -1.45364e-09 -4.11884e-09 4.48626e-08 -1.08118e-09 9.32423e-10 -4.5722e-09 -3.48856e-09
          -1.48294e-09 -1.82386e-09 -2.74564e-09 -3.55135e-09 -3.18064e-09 -5.57566e-09 -2.66726e-09 -1.6755e-09 -1.96769e-09 -1.92272e-09 4.85187e-08 4.79573e-10
          1.7648e-08 -8.08009e-09 -9.13342e-09 -7.66647e-09 -5.2985e-09 -3.47689e-09 -4.02334e-09 -2.62968e-09 -7.87669e-09 -2.05402e-09 -1.9482e-09 -2.59636e-09
          -1.16804e-08 5.7724e-09 -1.65166e-09 -4.29502e-08 -1.92392e-08 -2.70085e-08 -2.41016e-08 -1.9654e-08 -3.68926e-09 -4.57179e-09 -3.81098e-09 -1.24026e-08
          -9.15324e-10 -1.30354e-09 -2.86594e-09 -3.85665e-08 -5.06276e-08 -3.82551e-09 -7.7257e-08 -2.68996e-08 -6.02671e-08 -3.18255e-08 -4.56074e-08 -2.40504e-09
          -2.53114e-09 -3.31879e-09 -1.6644e-08 -7.35403e-10 -1.07293e-09 -3.10774e-09 -3.93332e-08 -4.41518e-08 -2.69632e-09 -2.7193e-08 -1.86707e-08 -9.1786e-08
          -2.77087e-08 -7.72126e-08 -2.07726e-09 -1.74968e-09 -3.42225e-09 -1.95373e-08 -6.37108e-10 -9.12049e-10 -3.23124e-09 -3.45469e-08 -3.88114e-08 -2.57239e-09
          -6.0687e-09 -8.12064e-09 -1.00307e-07 -1.7628e-08 -1.04994e-07 -1.73479e-09 -1.38278e-09 -3.26971e-09 -2.13138e-08 -8.2956e-10 -1.23408e-09 -3.64884e-09
          -3.00766e-08 -3.36551e-08 -2.18295e-09 -2.41127e-09 -5.34243e-09 -9.97453e-08 -8.79121e-09 -1.27601e-07 -1.16359e-09 -9.90535e-10 -3.96361e-09 -1.98752e-08
          -7.75543e-10 -1.13778e-09 -3.98239e-09 -2.46543e-08 -3.16639e-08 -3.93836e-09 -1.89453e-09 -4.08091e-09 -9.5078e-08 -5.92291e-09 -1.5112e-07 -9.75582e-10
          -8.66237e-10 -6.45638e-09 -1.69388e-08 -9.57161e-10 -1.11242e-09 -4.32271e-09 -1.73401e-08 -2.83213e-08 -5.22389e-09 -1.76963e-09 -3.53299e-09 -8.77352e-08
          -3.40569e-09 -1.69588e-07 -1.62084e-09 -1.03348e-09 -8.40999e-09 -1.49935e-08 -1.91177e-09 -1.24053e-09 -4.54671e-09 -1.3071e-08 -2.53097e-08 -5.87596e-09
          -1.30883e-09 -3.98148e-09 -8.15976e-08 -2.43813e-09 -1.70386e-07 -7.1556e-09 -2.7951e-09 -9.82577e-09 -1.42116e-08 -6.25525e-09 -2.33757e-09 -4.90137e-09
          -1.12782e-08 -2.34589e-08 -4.39086e-09 -1.21217e-09 -5.41467e-09 -7.22694e-08 -4.95725e-09 -1.5448e-07 -2.00792e-08 -4.14766e-09 -8.58108e-09 -1.21158e-08
          -1.53881e-08 -6.11364e-09 -5.27522e-09 -1.0804e-08 -2.41381e-08 -2.60775e-09 -1.4333e-09 -6.87164e-09 -6.02646e-08 -2.30074e-09 -1.01413e-07 -4.54661e-08
          -9.96589e-09 -7.36368e-09 -6.3113e-09 -1.77322e-08 -1.02221e-08 -5.26422e-09 -1.12729e-08 -2.14462e-08 -1.87628e-09 -1.76996e-09 -9.10097e-09 -5.5244e-08
          -1.10686e-09 -5.07624e-08 -4.53044e-08 -1.40451e-08 -6.95078e-09 -5.273e-09 -1.69858e-08 -1.40343e-08 -5.01928e-09 -1.31387e-08 -1.70583e-08 -1.82163e-09
          -2.32603e-09 -1.52474e-08 -4.36548e-08 -2.24394e-09 -5.8148e-08 -3.22282e-08 -1.5071e-08 -5.31321e-09 -5.28189e-09 -1.63972e-08 -1.87458e-08 -4.18183e-09
          -1.33014e-08 -1.33996e-08 -2.35328e-09 -3.53379e-09 -2.3639e-08 -3.93415e-08 -3.52292e-09 -6.63641e-08 -2.83705e-08 -1.67279e-08 -4.0603e-09 -4.71156e-09
          -1.3151e-08 -2.63071e-08 -3.19575e-09 -1.21618e-08 -9.45642e-09 -2.21314e-09 -2.42299e-09 -2.19774e-08 -3.4279e-08 -4.79674e-09 -5.74072e-08 -3.1779e-08
          -2.15287e-08 -3.72095e-09 -4.03918e-09 -8.19737e-09 -3.15765e-08 -2.65635e-09 -1.08401e-08 -6.19382e-09 -1.94612e-09 -1.75098e-09 -2.41484e-08 -2.35849e-08
          -4.77147e-09 -4.33296e-08 -3.30485e-08 -3.30965e-08 -3.8623e-09 -4.27136e-09 -9.31016e-09 -3.56091e-08 -2.92622e-09 -9.38833e-09 -4.48953e-09 -1.40333e-09
          -1.32878e-09 -2.51624e-08 -1.43572e-08 -4.36102e-09 -3.28235e-08 -2.47032e-08 -5.53221e-08 -3.93263e-09 -4.0097e-09 -1.14538e-08 -3.74258e-08 -3.77922e-09
          -7.48707e-09 -3.60443e-09 -1.57518e-09 -1.26551e-09 -2.38916e-08 -9.11736e-09 -4.17633e-09 -2.64907e-08 -1.22993e-08 -7.24251e-08 -4.34351e-09 -5.00149e-09
          -1.41024e-08 -3.92091e-08 -4.21869e-09 -4.98276e-09 -2.46946e-09 -1.74705e-09 -1.4415e-09 -1.86209e-08 -7.89493e-09 -4.61691e-09 -2.52469e-08 -7.77668e-09
          -7.60125e-08 -5.55076e-09 -7.65864e-09 -1.5765e-08 -4.17419e-08 -6.01906e-09 -2.46481e-09 -1.34102e-09 -1.24047e-09 -1.33884e-09 -1.0574e-08 -7.15564e-09
          -4.96382e-09 -2.69065e-08 -7.5143e-09 -6.80359e-08 -9.23113e-09 -1.32947e-08 -2.16299e-08 -4.39656e-08 -7.60952e-09 -7.67723e-10 -5.72629e-10 -4.28889e-10
          -4.34593e-10 -2.87096e-09 -3.05874e-09 -2.4812e-09 -1.5519e-08 -7.77139e-09 -3.95448e-08 -1.69239e-08 -1.49111e-08 -1.71729e-08 -2.43279e-08 -4.08214e-09
        </DataArray>
        <DataArray type="Float32" Name="z[0]" NumberOfComponents="1" format="ascii">
          0.150578 0.150579 0.15058 0.150582 0.150582 0.150583 0.150584 0.150585 0.150585 0.150586 0.150587 0.150588
          0.150589 0.150591 0.150596 0.150581 0.150582 0.150583 0.150585 0.150586 0.150587 0.150587 0.150588 0.150588
          0.150589 0.15059 0.150591 0.150593 0.150595 0.150599 0.150584 0.150585 0.150587 0.150588 0.150589 0.15059
          0.15059 0.150591 0.150592 0.150593 0.150593 0.150595 0.150596 0.150598 0.150602 0.150588 0.150589 0.15059
          0.150591 0.150592 0.150593 0.150594 0.150594 0.150595 0.150596 0.150597 0.150598 0.150599 0.150601 0.150605
          0.150591 0.150592 0.150593 0.150594 0.150595 0.150596 0.150597 0.150597 0.150598 0.150599 0.1506 0.150601
          0.150602 0.150604 0.150609 0.150594 0.150595 0.150596 0.150597 0.150598 0.150599 0.1506 0.1506 0.150601
          0.150602 0.150603 0.150604 0.150605 0.150607 0.150612 0.150597 0.150598 0.150599 0.150601 0.150601 0.150602