<?xml version="1.0"?>
<VTKFile type="UnstructuredGrid" version="0.1" byte_order="LittleEndian">
  <UnstructuredGrid>
    <Piece NumberOfCells="360" NumberOfPoints="800">
      <CellData Scalars="pressure[0]">
        <DataArray type="Float32" Name="pressure[0]" NumberOfComponents="1" format="ascii">
          2.11966e+07 2.121e+07 2.19696e+07 2.27284e+07 2.31115e+07 2.35023e+07 2.36245e+07 2.367e+07 2.37266e+07 2.37878e+07 2.3946e+07 2.42076e+07
          2.4403e+07 2.49741e+07 2.56784e+07 2.12529e+07 2.12833e+07 2.21067e+07 2.28931e+07 2.32913e+07 2.36818e+07 2.37713e+07 2.3807e+07 2.38646e+07
          2.39321e+07 2.41479e+07 2.44118e+07 2.45739e+07 2.51657e+07 2.58429e+07 2.1367e+07 2.14135e+07 2.22226e+07 2.30467e+07 2.34038e+07 2.37721e+07
          2.3879e+07 2.39294e+07 2.40016e+07 2.40898e+07 2.4377e+07 2.46746e+07 2.48421e+07 2.53994e+07 2.60483e+07 2.14949e+07 2.15414e+07 2.20562e+07
          2.31833e+07 2.35476e+07 2.39108e+07 2.40086e+07 2.40536e+07 2.4156e+07 2.42832e+07 2.4661e+07 2.50208e+07 2.51937e+07 2.56773e+07 2.63015e+07
          2.16261e+07 2.16468e+07 1.98199e+07 2.32837e+07 2.37687e+07 2.4144e+07 2.42068e+07 2.42403e+07 2.43908e+07 2.46121e+07 2.50155e+07 2.53515e+07
          2.55326e+07 2.59898e+07 2.6551e+07 2.18358e+07 2.18786e+07 2.26261e+07 2.38639e+07 2.41699e+07 2.44091e+07 2.44511e+07 2.44849e+07 2.4677e+07
          2.50314e+07 2.54327e+07 2.56488e+07 2.58456e+07 2.63026e+07 2.68297e+07 2.21094e+07 2.21613e+07 2.33784e+07 2.4317e+07 2.45201e+07 2.46812e+07
          2.47225e+07 2.47561e+07 2.49394e+07 2.5419e+07 2.58105e+07 2.59121e+07 2.61008e+07 2.66402e+07 2.72144e+07 2.25056e+07 2.25623e+07 2.37497e+07
          2.46419e+07 2.48334e+07 2.49563e+07 2.49923e+07 2.50225e+07 2.52471e+07 2.57369e+07 2.6069e+07 2.61521e+07 2.64043e+07 2.69912e+07 2.77431e+07
          2.30796e+07 2.31427e+07 2.40691e+07 2.48983e+07 2.51377e+07 2.52368e+07 2.52803e+07 2.53213e+07 2.56123e+07 2.60997e+07 2.63412e+07 2.63866e+07
          2.66432e+07 2.73917e+07 2.82729e+07 2.3749e+07 2.38596e+07 2.43432e+07 2.49825e+07 2.54063e+07 2.54916e+07 2.55705e+07 2.56492e+07 2.59873e+07
          2.64567e+07 2.66743e+07 2.67174e+07 2.69933e+07 2.77991e+07 2.85925e+07 2.44898e+07 2.46046e+07 2.48792e+07 2.53051e+07 2.56373e+07 2.57009e+07
          2.58369e+07 2.62786e+07 2.65217e+07 2.68345e+07 2.70244e+07 2.70804e+07 2.73266e+07 2.81447e+07 2.88309e+07 2.52445e+07 2.5316e+07 2.54333e+07
          2.56672e+07 2.58646e+07 2.59062e+07 2.61227e+07 2.69016e+07 2.70565e+07 2.72391e+07 2.73871e+07 2.74652e+07 2.77364e+07 2.85009e+07 2.90865e+07
          2.58151e+07 2.58624e+07 2.58894e+07 2.60493e+07 2.6163e+07 2.61933e+07 2.64493e+07 2.7484e+07 2.75622e+07 2.76855e+07 2.78108e+07 2.79767e+07
          2.82646e+07 2.88562e+07 2.93554e+07 2.62714e+07 2.63194e+07 2.63453e+07 2.65374e+07 2.66248e+07 2.65885e+07 2.6872e+07 2.79475e+07 2.79796e+07
          2.80789e+07 2.81779e+07 2.84515e+07 2.88444e+07 3.0026e+07 2.98288e+07 2.66433e+07 2.66786e+07 2.68715e+07 2.72216e+07 2.73665e+07 2.74994e+07
          2.76833e+07 2.8456e+07 2.84944e+07 2.85285e+07 2.85916e+07 2.89896e+07 3.03247e+07 3.05673e+07 3.04121e+07 2.69759e+07 2.70235e+07 2.73765e+07
          2.78034e+07 2.80618e+07 2.81834e+07 2.85111e+07 2.88294e+07 2.88819e+07 2.89638e+07 2.92626e+07 3.0107e+07 3.08023e+07 3.11954e+07 3.0971e+07
          2.73169e+07 2.73787e+07 2.78157e+07 2.82613e+07 2.86861e+07 2.87413e+07 2.89132e+07 2.90714e+07 2.91223e+07 2.91898e+07 2.9657e+07 3.07194e+07
          3.14449e+07 3.181e+07 3.14862e+07 2.8107e+07 2.81589e+07 2.83313e+07 2.88178e+07 2.90314e+07 2.90798e+07 2.92071e+07 2.93176e+07 2.93713e+07
          2.94327e+07 3.00275e+07 3.11716e+07 3.19136e+07 3.21993e+07 3.2003e+07 2.84434e+07 2.85077e+07 2.87199e+07 2.9112e+07 2.93188e+07 2.93683e+07
          2.94715e+07 2.95612e+07 2.96098e+07 2.96685e+07 3.03298e+07 3.1606e+07 3.23697e+07 3.2574e+07 3.27378e+07 2.87131e+07 2.87723e+07 2.89905e+07
          2.93678e+07 2.95592e+07 2.96087e+07 2.97042e+07 2.97847e+07 2.98338e+07 2.99007e+07 3.05587e+07 3.19729e+07 3.28162e+07 3.29702e+07 3.34363e+07
          2.89356e+07 2.9005e+07 2.91823e+07 2.95284e+07 2.97659e+07 2.98217e+07 2.99221e+07 3.00048e+07 3.00748e+07 3.01633e+07 3.11021e+07 3.26206e+07
          3.32278e+07 3.33932e+07 3.39735e+07 2.91475e+07 2.92204e+07 2.93781e+07 2.97168e+07 2.99591e+07 3.00218e+07 3.01378e+07 3.0232e+07 3.03262e+07
          3.04308e+07 3.17058e+07 3.32885e+07 3.36567e+07 3.38649e+07 3.44962e+07 2.93376e+07 2.94031e+07 2.95967e+07 2.99555e+07 3.0152e+07 3.0226e+07
          3.03633e+07 3.0473e+07 3.05978e+07 3.07314e+07 3.22133e+07 3.38347e+07 3.41492e+07 3.43863e+07 3.48593e+07 2.9508e+07 2.95697e+07 2.97381e+07
          3.00988e+07 3.03548e+07 3.04308e+07 3.05863e+07 3.07149e+07 3.08695e+07 3.10538e+07 3.27778e+07 3.43041e+07 3.46559e+07 3.48683e+07 3.51755e+07
        </DataArray>
        <DataArray type="Float32" Name="pressure[1]" NumberOfComponents="1" format="ascii">
          2.11966e+07 2.121e+07 2.19696e+07 2.27284e+07 2.31115e+07 2.35023e+07 2.36245e+07 2.367e+07 2.37266e+07 2.37878e+07 2.3946e+07 2.42076e+07
          2.4403e+07 2.49741e+07 2.56784e+07 2.12529e+07 2.12833e+07 2.21067e+07 2.28931e+07 2.32913e+07 2.36818e+07 2.37713e+07 2.3807e+07 2.38646e+07
          2.39321e+07 2.41479e+07 2.44118e+07 2.45739e+07 2.51657e+07 2.58429e+07 2.1367e+07 2.14135e+07 2.22226e+07 2.30467e+07 2.34038e+07 2.37721e+07
          2.3879e+07 2.39294e+07 2.40016e+07 2.40898e+07 2.4377e+07 2.46746e+07 2.48421e+07 2.53994e+07 2.60483e+07 2.14949e+07 2.15414e+07 2.20562e+07
          2.31833e+07 2.35476e+07 2.39108e+07 2.40086e+07 2.40536e+07 2.4156e+07 2.42832e+07 2.4661e+07 2.50208e+07 2.51937e+07 2.56773e+07 2.63015e+07
          2.16261e+07 2.16468e+07 1.98199e+07 2.32837e+07 2.37687e+07 2.4144e+07 2.42068e+07 2.42403e+07 2.43908e+07 2.46121e+07 2.50155e+07 2.53515e+07
          2.55326e+07 2.59898e+07 2.6551e+07 2.18358e+07 2.18786e+07 2.26261e+07 2.38639e+07 2.41699e+07 2.44091e+07 2.44511e+07 2.44849e+07 2.4677e+07
          2.50314e+07 2.54327e+07 2.56488e+07 2.58456e+07 2.63026e+07 2.68297e+07 2.21094e+07 2.21613e+07 2.33784e+07 2.4317e+07 2.45201e+07 2.46812e+07
          2.47225e+07 2.47561e+07 2.49394e+07 2.5419e+07 2.58105e+07 2.59121e+07 2.61008e+07 2.66402e+07 2.72144e+07 2.25056e+07 2.25623e+07 2.37497e+07
          2.46419e+07 2.48334e+07 2.49563e+07 2.49923e+07 2.50225e+07 2.52471e+07 2.57369e+07 2.6069e+07 2.61521e+07 2.64043e+07 2.69912e+07 2.77431e+07
          2.30796e+07 2.31427e+07 2.40691e+07 2.48983e+07 2.51377e+07 2.52368e+07 2.52803e+07 2.53213e+07 2.56123e+07 2.60997e+07 2.63412e+07 2.63866e+07
          2.66432e+07 2.73917e+07 2.82729e+07 2.3749e+07 2.38596e+07 2.43432e+07 2.49825e+07 2.54063e+07 2.54916e+07 2.55705e+07 2.56492e+07 2.59873e+07
          2.64567e+07 2.66743e+07 2.67174e+07 2.69933e+07 2.77991e+07 2.85925e+07 2.44898e+07 2.46046e+07 2.48792e+07 2.53051e+07 2.56373e+07 2.57009e+07
          2.58369e+07 2.62786e+07 2.65217e+07 2.68345e+07 2.70244e+07 2.70804e+07 2.73266e+07 2.81447e+07 2.88309e+07 2.52445e+07 2.5316e+07 2.54333e+07
          2.56672e+07 2.58646e+07 2.59062e+07 2.61227e+07 2.69016e+07 2.70565e+07 2.72391e+07 2.73871e+07 2.74652e+07 2.77364e+07 2.85009e+07 2.90865e+07
          2.58151e+07 2.58624e+07 2.58894e+07 2.60493e+07 2.6163e+07 2.61933e+07 2.64493e+07 2.7484e+07 2.75622e+07 2.76855e+07 2.78108e+07 2.79767e+07
          2.82646e+07 2.88562e+07 2.93554e+07 2.62714e+07 2.63194e+07 2.63453e+07 2.65374e+07 2.66248e+07 2.65885e+07 2.6872e+07 2.79475e+07 2.79796e+07
          2.80789e+07 2.81779e+07 2.84515e+07 2.88444e+07 3.0026e+07 2.98288e+07 2.66433e+07 2.66786e+07 2.68715e+07 2.72216e+07 2.73665e+07 2.74994e+07
          2.76833e+07 2.8456e+07 2.84944e+07 2.85285e+07 2.85916e+07 2.89896e+07 3.03247e+07 3.05673e+07 3.04121e+07 2.69759e+07 2.70235e+07 2.73765e+07
          2.78034e+07 2.80618e+07 2.81834e+07 2.85111e+07 2.88294e+07 2.88819e+07 2.89638e+07 2.92626e+07 3.0107e+07 3.08023e+07 3.11954e+07 3.0971e+07
          2.73169e+07 2.73787e+07 2.78157e+07 2.82613e+07 2.86861e+07 2.87413e+07 2.89132e+07 2.90714e+07 2.91223e+07 2.91898e+07 2.9657e+07 3.07194e+07
          3.14449e+07 3.181e+07 3.14862e+07 2.8107e+07 2.81589e+07 2.83313e+07 2.88178e+07 2.90314e+07 2.90798e+07 2.92071e+07 2.93176e+07 2.93713e+07
          2.94327e+07 3.00275e+07 3.11716e+07 3.19136e+07 3.21993e+07 3.2003e+07 2.84434e+07 2.85077e+07 2.87199e+07 2.9112e+07 2.93188e+07 2.93683e+07
          2.94715e+07 2.95612e+07 2.96098e+07 2.96685e+07 3.03298e+07 3.1606e+07 3.23697e+07 3.2574e+07 3.27378e+07 2.87131e+07 2.87723e+07 2.89905e+07
          2.93678e+07 2.95592e+07 2.96087e+07 2.97042e+07 2.97847e+07 2.98338e+07 2.99007e+07 3.05587e+07 3.19729e+07 3.28162e+07 3.29702e+07 3.34363e+07
          2.89356e+07 2.9005e+07 2.91823e+07 2.95284e+07 2.97659e+07 2.98217e+07 2.99221e+07 3.00048e+07 3.00748e+07 3.01633e+07 3.11021e+07 3.26206e+07
          3.32278e+07 3.33932e+07 3.39735e+07 2.91475e+07 2.92204e+07 2.93781e+07 2.97168e+07 2.99591e+07 3.00218e+07 3.01378e+07 3.0232e+07 3.03262e+07
          3.04308e+07 3.17058e+07 3.32885e+07 3.36567e+07 3.38649e+07 3.44962e+07 2.93376e+07 2.94031e+07 2.95967e+07 2.99555e+07 3.0152e+07 3.0226e+07
          3.03633e+07 3.0473e+07 3.05978e+07 3.07314e+07 3.22133e+07 3.38347e+07 3.41492e+07 3.43863e+07 3.48593e+07 2.9508e+07 2.95697e+07 2.97381e+07
          3.00988e+07 3.03548e+07 3.04308e+07 3.05863e+07 3.07149e+07 3.08695e+07 3.10538e+07 3.27778e+07 3.43041e+07 3.46559e+07 3.48683e+07 3.51755e+07
        </DataArray>
        <DataArray type="Float32" Name="pressure[2]" NumberOfComponents="1" format="ascii">
          2.11966e+07 2.121e+07 2.19696e+07 2.27284e+07 2.31115e+07 2.35023e+07 2.36245e+07 2.367e+07 2.37266e+07 2.37878e+07 2.3946e+07 2.42076e+07
          2.4403e+07 2.49741e+07 2.56784e+07 2.12529e+07 2.12833e+07 2.21067e+07 2.28931e+07 2.32913e+07 2.36818e+07 2.37713e+07 2.3807e+07 2.38646e+07
          2.39321e+07 2.41479e+07 2.44118e+07 2.45739e+07 2.51657e+07 2.58429e+07 2.1367e+07 2.14135e+07 2.22226e+07 2.30467e+07 2.34038e+07 2.37721e+07
          2.3879e+07 2.39294e+07 2.40016e+07 2.40898e+07 2.4377e+07 2.46746e+07 2.48421e+07 2.53994e+07 2.60483e+07 2.14949e+07 2.15414e+07 2.20562e+07
          2.31833e+07 2.35476e+07 2.39108e+07 2.40086e+07 2.40536e+07 2.4156e+07 2.42832e+07 2.4661e+07 2.50208e+07 2.51937e+07 2.56773e+07 2.63015e+07
          2.16261e+07 2.16468e+07 1.98199e+07 2.32837e+07 2.37687e+07 2.4144e+07 2.42068e+07 2.42403e+07 2.43908e+07 2.46121e+07 2.50155e+07 2.53515e+07
          2.55326e+07 2.59898e+07 2.6551e+07 2.18358e+07 2.18786e+07 2.26261e+07 2.38639e+07 2.41699e+07 2.44091e+07 2.44511e+07 2.44849e+07 2.4677e+07
          2.50314e+07 2.54327e+07 2.56488e+07 2.58456e+07 2.63026e+07 2.68297e+07 2.21094e+07 2.21613e+07 2.33784e+07 2.4317e+07 2.45201e+07 2.46812e+07
          2.47225e+07 2.47561e+07 2.49394e+07 2.5419e+07 2.58105e+07 2.59121e+07 2.61008e+07 2.66402e+07 2.72144e+07 2.25056e+07 2.25623e+07 2.37497e+07
          2.46419e+07 2.48334e+07 2.49563e+07 2.49923e+07 2.50225e+07 2.52471e+07 2.57369e+07 2.6069e+07 2.61521e+07 2.64043e+07 2.69912e+07 2.77431e+07
          2.30796e+07 2.31427e+07 2.40691e+07 2.48983e+07 2.51377e+07 2.52368e+07 2.52803e+07 2.53213e+07 2.56123e+07 2.60997e+07 2.63412e+07 2.63866e+07
          2.66432e+07 2.73917e+07 2.82729e+07 2.3749e+07 2.38596e+07 2.43432e+07 2.49825e+07 2.54063e+07 2.54916e+07 2.55705e+07 2.56492e+07 2.59873e+07
          2.64567e+07 2.66743e+07 2.67174e+07 2.69933e+07 2.77991e+07 2.85925e+07 2.44898e+07 2.46046e+07 2.48792e+07 2.53051e+07 2.56373e+07 2.57009e+07
          2.58369e+07 2.62786e+07 2.65217e+07 2.68345e+07 2.70244e+07 2.70804e+07 2.73266e+07 2.81447e+07 2.88309e+07 2.52445e+07 2.5316e+07 2.54333e+07
          2.56672e+07 2.58646e+07 2.59062e+07 2.61227e+07 2.69016e+07 2.70565e+07 2.72391e+07 2.73871e+07 2.74652e+07 2.77364e+07 2.85009e+07 2.90865e+07
          2.58151e+07 2.58624e+07 2.58894e+07 2.60493e+07 2.6163e+07 2.61933e+07 2.64493e+07 2.7484e+07 2.75622e+07 2.76855e+07 2.78108e+07 2.79767e+07
          2.82646e+07 2.88562e+07 2.93554e+07 2.62714e+07 2.63194e+07 2.63453e+07 2.65374e+07 2.66248e+07 2.65885e+07 2.6872e+07 2.79475e+07 2.79796e+07
          2.80789e+07 2.81779e+07 2.84515e+07 2.88444e+07 3.0026e+07 2.98288e+07 2.66433e+07 2.66786e+07 2.68715e+07 2.72216e+07 2.73665e+07 2.74994e+07
          2.76833e+07 2.8456e+07 2.84944e+07 2.85285e+07 2.85916e+07 2.89896e+07 3.03247e+07 3.05673e+07 3.04121e+07 2.69759e+07 2.70235e+07 2.73765e+07
          2.78034e+07 2.80618e+07 2.81834e+07 2.85111e+07 2.88294e+07 2.88819e+07 2.89638e+07 2.92626e+07 3.0107e+07 3.08023e+07 3.11954e+07 3.0971e+07
          2.73169e+07 2.73787e+07 2.78157e+07 2.82613e+07 2.86861e+07 2.87413e+07 2.89132e+07 2.90714e+07 2.91223e+07 2.91898e+07 2.9657e+07 3.07194e+07
          3.14449e+07 3.181e+07 3.14862e+07 2.8107e+07 2.81589e+07 2.83313e+07 2.88178e+07 2.90314e+07 2.90798e+07 2.92071e+07 2.93176e+07 2.93713e+07
          2.94327e+07 3.00275e+07 3.11716e+07 3.19136e+07 3.21993e+07 3.2003e+07 2.84434e+07 2.85077e+07 2.87199e+07 2.9112e+07 2.93188e+07 2.93683e+07
          2.94715e+07 2.95612e+07 2.96098e+07 2.96685e+07 3.03298e+07 3.1606e+07 3.23697e+07 3.2574e+07 3.27378e+07 2.87131e+07 2.87723e+07 2.89905e+07
          2.93678e+07 2.95592e+07 2.96087e+07 2.97042e+07 2.97847e+07 2.98338e+07 2.99007e+07 3.05587e+07 3.19729e+07 3.28162e+07 3.29702e+07 3.34363e+07
          2.89356e+07 2.9005e+07 2.91823e+07 2.95284e+07 2.97659e+07 2.98217e+07 2.99221e+07 3.00048e+07 3.00748e+07 3.01633e+07 3.11021e+07 3.26206e+07
          3.32278e+07 3.33932e+07 3.39735e+07 2.91475e+07 2.92204e+07 2.93781e+07 2.97168e+07 2.99591e+07 3.00218e+07 3.01378e+07 3.0232e+07 3.03262e+07
          3.04308e+07 3.17058e+07 3.32885e+07 3.36567e+07 3.38649e+07 3.44962e+07 2.93376e+07 2.94031e+07 2.95967e+07 2.99555e+07 3.0152e+07 3.0226e+07
          3.03633e+07 3.0473e+07 3.05978e+07 3.07314e+07 3.22133e+07 3.38347e+07 3.41492e+07 3.43863e+07 3.48593e+07 2.9508e+07 2.95697e+07 2.97381e+07
          3.00988e+07 3.03548e+07 3.04308e+07 3.05863e+07 3.07149e+07 3.08695e+07 3.10538e+07 3.27778e+07 3.43041e+07 3.46559e+07 3.48683e+07 3.51755e+07
        </DataArray>
        <DataArray type="Float32" Name="velocity[0]" NumberOfComponents="1" format="ascii">
          -2.67174e-08 7.93895e-08 -3.15375e-11 -6.42296e-09 -3.89834e-10 -1.61738e-09 -1.04578e-09 7.86811e-10 1.20551e-09 -5.69406e-10 -1.74947e-09 -2.33598e-09
          -1.64305e-09 -5.53272e-10 -2.44277e-09 -3.4459e-08 1.69442e-07 4.23802e-11 -2.48471e-08 -9.50614e-11 1.15765e-09 5.95722e-09 4.13814e-09 2.36852e-09
          -2.79569e-09 -3.65484e-09 -1.00401e-08 -6.17419e-09 -1.624e-09 -6.47435e-09 -1.40028e-08 1.90588e-07 1.08432e-09 -3.92861e-09 2.43759e-10 3.02198e-09
          9.28738e-09 6.49503e-09 -2.48332e-10 -6.46541e-09 -4.27023e-09 -2.51451e-08 -8.85805e-09 -3.43108e-09 -9.70695e-09 -1.04538e-08 2.06083e-07 8.23319e-09
          8.52912e-08 -2.58368e-09 -1.46178e-08 -1.67721e-08 -1.02072e-08 -5.87139e-09 -1.30023e-08 -5.36722e-09 -4.26054e-08 -6.3198e-09 -5.03503e-09 -1.32685e-08
          -9.8453e-08 -3.35435e-08 -3.1664e-10 -1.5015e-07 -1.87197e-08 -7.45494e-08 -8.40197e-08 -7.26287e-08 -7.51132e-09 -1.27796e-08 -7.45247e-09 -7.07086e-08
          -3.1096e-09 -4.593e-09 -1.63871e-08 -1.98273e-07 -2.51763e-07 -9.27758e-09 -3.05525e-07 -3.83601e-08 -2.17576e-07 -1.20573e-07 -1.87419e-07 -4.79194e-09
          -5.49341e-09 -1.09485e-08 -1.01388e-07 -1.78799e-09 -3.64213e-09 -1.85073e-08 -1.97969e-07 -2.15651e-07 -2.62273e-09 -9.76752e-08 -3.47344e-08 -3.70942e-07
          -9.78651e-08 -3.22201e-07 -3.57462e-09 -2.29828e-09 -1.32229e-08 -1.21865e-07 -1.57161e-09 -3.60511e-09 -1.99962e-08 -1.78079e-07 -1.93446e-07 -1.94933e-09
          -1.54964e-08 -2.07369e-08 -4.38064e-07 -5.94655e-08 -4.29172e-07 -3.43922e-09 -1.85256e-09 -1.49984e-08 -1.3673e-07 -1.31642e-09 -3.7505e-09 -2.16896e-08
          -1.60018e-07 -1.69531e-07 -2.28679e-09 -1.93033e-09 -1.43913e-08 -4.58181e-07 -2.29227e-08 -4.90434e-07 -2.80363e-09 -2.11112e-09 -2.59838e-08 -1.34093e-07
          -1.2602e-09 -3.42647e-09 -2.39244e-08 -1.29783e-07 -1.55954e-07 -8.68061e-09 -3.61215e-10 -1.10696e-08 -4.62406e-07 -7.58202e-09 -5.31611e-07 -3.82072e-09
          -2.59992e-09 -4.58501e-08 -1.17331e-07 -2.11318e-09 -2.92976e-09 -2.61669e-08 -9.42875e-08 -1.50168e-07 -1.99724e-08 -1.37404e-09 -1.08545e-08 -4.50705e-07
          -3.00927e-09 -5.57584e-07 -1.09908e-08 -4.21554e-09 -5.9678e-08 -1.00213e-07 -5.97441e-09 -3.38915e-09 -2.82098e-08 -7.4995e-08 -1.42939e-07 -2.77191e-08
          -1.12417e-09 -1.74567e-08 -4.26833e-07 -2.49484e-09 -4.83024e-07 -5.01692e-08 -8.53541e-09 -6.39425e-08 -7.77252e-08 -2.16997e-08 -6.08551e-09 -3.0458e-08
          -6.91277e-08 -1.4563e-07 -2.44703e-08 -2.22664e-09 -2.98884e-08 -3.66776e-07 -3.52878e-09 -3.35767e-07 -1.29866e-07 -1.52202e-08 -5.30509e-08 -4.02592e-08
          -4.58508e-08 -1.50037e-08 -3.438e-08 -6.86718e-08 -1.55426e-07 -1.43076e-08 -5.75207e-09 -6.63855e-08 -2.69399e-07 -6.90736e-09 -3.19036e-07 -1.32077e-07
          -4.76438e-08 -4.12632e-08 -1.31883e-08 -5.32228e-08 -3.37881e-08 -3.59111e-08 -7.58568e-08 -1.41707e-07 -8.51673e-09 -9.27461e-09 -8.37687e-08 -2.26107e-07
          -6.31046e-09 -3.93978e-07 -9.67502e-08 -5.5114e-08 -3.13294e-08 -1.08936e-08 -4.80209e-08 -5.52738e-08 -3.28798e-08 -8.30579e-08 -1.0973e-07 -7.02746e-09
          -1.31156e-08 -6.11364e-08 -2.48749e-07 -3.60575e-09 -3.83415e-07 -1.08339e-07 -3.54973e-08 -1.35244e-08 -1.11304e-08 -5.03654e-08 -8.02737e-08 -2.81947e-08
          -7.49056e-08 -7.67012e-08 -9.97095e-09 -1.58042e-08 -6.80586e-08 -2.37061e-07 -4.51726e-09 -3.20268e-07 -1.1282e-07 -5.25357e-08 -4.70329e-09 -6.92631e-09
          -3.88554e-08 -1.16978e-07 -2.26573e-08 -6.66548e-08 -4.82928e-08 -9.51008e-09 -9.59768e-09 -1.01308e-07 -1.77368e-07 -5.8863e-09 -2.55842e-07 -1.27859e-07
          -8.41302e-08 -3.09803e-09 -4.3112e-09 -2.4279e-08 -1.51161e-07 -1.78082e-08 -6.22953e-08 -3.14928e-08 -4.89303e-09 -2.7288e-09 -1.21522e-07 -1.13667e-07
          -6.22455e-09 -1.91489e-07 -1.32793e-07 -1.38302e-07 -1.7992e-09 -3.47511e-09 -3.11132e-08 -1.7157e-07 -1.56675e-08 -5.34157e-08 -2.19139e-08 -2.40615e-09
          -1.00551e-09 -1.25475e-07 -6.34139e-08 -5.14996e-09 -1.42945e-07 -8.7937e-08 -2.46759e-07 -3.1588e-09 -4.88722e-09 -4.61394e-08 -1.81141e-07 -1.69185e-08
          -4.13536e-08 -1.46747e-08 -1.77475e-09 -2.66505e-10 -1.14341e-07 -3.24119e-08 -4.36886e-09 -1.13839e-07 -3.74307e-08 -3.46512e-07 -4.96124e-09 -8.98096e-09
          -5.62097e-08 -1.88637e-07 -1.94859e-08 -2.61302e-08 -7.51247e-09 -2.55647e-09 -9.95412e-10 -8.34473e-08 -2.16807e-08 -4.27664e-09 -1.09389e-07 -2.05438e-08
          -3.68337e-07 -4.54601e-09 -1.73311e-08 -6.14476e-08 -1.96337e-07 -2.42001e-08 -1.22306e-08 -3.01345e-09 -1.14347e-09 -6.56046e-10 -4.12985e-08 -1.60631e-08
          -3.52343e-09 -1.16705e-07 -1.66716e-08 -3.18371e-07 -6.31963e-09 -2.99183e-08 -8.0084e-08 -2.04012e-07 -3.15986e-08 -3.24496e-09 -6.79708e-10 2.43809e-10
          8.59801e-11 -9.66885e-09 -6.10887e-09 -1.29213e-09 -5.9691e-08 -7.78316e-09 -1.37848e-07 -4.16854e-09 -1.81477e-08 -4.76856e-08 -1.04711e-07 -1.77395e-08
        </DataArray>
        <DataArray type="Float32" Name="velocity[1]" NumberOfComponents="1" format="ascii">
          4.15219e-24 1.25426e-23 1.72785e-25 -9.98204e-25 6.05848e-26 0 1.62527e-25 -5.52811e-26 1.03266e-25 5.15622e-24 -3.41299e-24 6.04349e-26
          2.17892e-24 -8.46464e-25 3.79383e-25 -2.94906e-24 1.48512e-24 1.59791e-25 -1.86512e-24 -2.51028e-25 7.40547e-24 8.55162e-25 1.26801e-25 -6.97216e-24
          -2.25554e-25 0 -5.94341e-26 5.49606e-26 3.23838e-28 2.4692e-25 -2.30078e-25 -1.04347e-23 -2.05417e-24 5.11611e-24 -3.0005e-25 0
          5.89266e-25 -4.39806e-26 -4.00085e-25 0 6.28921e-24 -9.79344e-24 0 1.02289e-24 -2.5598e-25 -5.74263e-25 1.45634e-23 -1.78392e-24
          -8.49538e-24 5.61144e-25 1.12769e-23 -1.96782e-23 2.55582e-23 -3.23558e-24 1.11251e-24 2.99248e-24 -3.98321e-24 2.81376e-24 -1.19319e-24 8.94402e-25
          -1.48824e-25 -7.60392e-23 7.08092e-24 1.32874e-23 -5.78086e-25 -7.40883e-24 2.13539e-25 -1.40845e-25 -4.61595e-26 -5.32793e-24 3.53256e-24 -6.33542e-24
          -3.9557e-28 1.17279e-25 -1.36668e-24 -1.87893e-25 8.21149e-24 -7.40171e-25 1.00071e-23 2.49797e-25 -1.58449e-23 0 -2.09069e-25 -3.23638e-26
          3.93404e-25 -3.19655e-25 4.84132e-24 -1.35002e-24 7.98698e-25 1.36621e-24 -1.36676e-24 1.8052e-24 0 1.15507e-23 -1.32116e-24 -2.52746e-23
          -2.08228e-25 -5.22649e-26 -2.45642e-24 7.89694e-28 -4.39707e-28 -7.04723e-28 3.59385e-26 -1.93417e-28 -1.50957e-24 -2.30816e-25 1.42741e-23 1.76764e-24
          3.16534e-24 -1.16696e-27 3.12547e-23 -1.3729e-27 -2.3874e-27 6.88286e-26 -3.33074e-26 -3.05501e-24 -1.01059e-23 -3.32289e-28 -3.48096e-25 1.77273e-24
          -1.5069e-24 -9.42626e-24 -1.2467e-25 -2.2721e-24 -3.03424e-25 2.38982e-24 0 0 -1.00276e-24 5.09647e-28 1.05973e-24 2.27687e-24
          -6.3108e-28 4.82016e-26 -3.68145e-29 -1.17951e-23 6.00427e-25 1.50857e-24 -2.01033e-25 -2.47147e-24 3.43536e-24 -6.60332e-24 3.26314e-24 1.26321e-24
          -6.87948e-26 -1.1526e-24 2.43822e-24 -8.07631e-25 0 -1.9454e-24 4.37474e-24 8.16511e-26 7.85645e-25 -1.28136e-25 1.93355e-24 2.52095e-27
          -5.48007e-24 1.56407e-24 8.93764e-25 1.82887e-25 9.69169e-25 6.72606e-24 2.02724e-24 -2.83222e-25 1.41611e-25 -5.37638e-24 1.12236e-24 -4.19308e-25
          -1.36546e-26 -1.1716e-25 -3.19133e-23 3.34983e-26 -1.23624e-23 -4.16525e-24 -4.88772e-25 -1.89894e-24 4.16265e-24 -1.83694e-24 1.04782e-24 -2.07736e-25
          5.36633e-24 1.0827e-23 0 -1.65461e-25 1.08279e-24 6.83788e-24 1.24436e-25 -1.05184e-23 -7.19001e-24 7.17752e-29 -3.20851e-24 -1.36752e-24
          1.84278e-24 -6.32649e-25 5.9272e-30 -6.13421e-26 8.9879e-28 3.89793e-25 -7.63455e-25 -4.67587e-27 3.00193e-23 3.95718e-25 7.92135e-24 1.94505e-23
          -8.64588e-24 3.20866e-24 4.14706e-24 -7.59911e-24 1.32061e-28 -2.70868e-24 -5.30504e-24 -9.67372e-24 -6.84689e-28 6.38187e-25 -1.88633e-24 8.31541e-28
          -4.90649e-25 3.41477e-24 1.40049e-25 0 0 6.82098e-25 5.85592e-24 -8.72069e-25 5.10998e-24 0 2.29549e-24 0
          -1.23513e-24 -1.62415e-24 -1.07539e-27 7.0306e-26 -5.36894e-24 1.04094e-27 3.36041e-28 1.20242e-29 4.85696e-24 -5.49266e-28 -1.55778e-24 -2.40125e-24
          5.94435e-28 2.8369e-24 -4.65605e-29 1.37129e-26 2.70792e-24 -1.19174e-23 0 -1.24645e-23 0 1.13254e-28 3.37262e-24 -4.2304e-24
          -2.2641e-24 3.56768e-28 1.54081e-24 0 4.54131e-24 0 1.22184e-24 3.30474e-24 4.54843e-24 1.40376e-25 -5.56749e-24 -5.62025e-24
          -2.54141e-24 2.12839e-25 9.14173e-26 5.02483e-30 -2.00541e-24 -1.2268e-24 4.53905e-24 -1.84072e-24 2.32397e-24 -2.19133e-24 6.81465e-25 1.10247e-23
          -8.77573e-26 -4.43346e-24 1.0977e-23 6.20337e-24 -3.73028e-24 8.43125e-26 1.06364e-24 -5.75286e-28 1.20811e-24 2.54319e-28 -4.00189e-24 8.59126e-25
          -1.96714e-24 -1.33618e-25 -3.4277e-24 -1.57418e-25 -6.22181e-24 -5.65718e-24 1.09798e-23 3.06882e-25 4.0209e-24 1.27148e-24 -4.26821e-25 -9.94988e-25
          -1.09792e-24 6.70947e-25 0 -3.64333e-26 -1.66384e-24 5.38293e-24 -9.46233e-24 9.4644e-24 -6.64555e-24 1.04088e-27 0 0
          2.93665e-25 -8.90407e-28 1.60711e-24 -1.26799e-24 -1.32922e-24 1.23096e-24 -2.07668e-24 -1.26174e-24 -1.54602e-24 2.70328e-26 7.21002e-25 -4.33973e-24
          1.54406e-23 -2.97146e-25 -7.39269e-24 5.19919e-25 1.09482e-24 -9.8608e-29 -8.9177e-25 -3.7316e-28 -5.32033e-28 1.26831e-25 -3.41372e-24 5.98536e-25
          -1.4596e-25 1.18039e-23 -4.88961e-24 0 -3.13536e-25 -9.90633e-25 7.49582e-24 -8.4171e-25 0 -5.0473e-25 -4.78235e-28 -4.12703e-25
          7.01018e-25 -1.50182e-24 -2.47136e-24 -4.03268e-25 -3.08876e-24 1.2096e-24 -3.35394e-23 0 3.36492e-23 -2.48147e-23 2.06007e-23 5.17027e-25
        </DataArray>
        <DataArray type="Float32" Name="velocity[2]" NumberOfComponents="1" format="ascii">
          -2.90365e-09 1.37104e-08 -4.09879e-09 -4.73647e-09 -3.20772e-09 -3.23101e-09 -2.96114e-09 -2.59693e-09 -2.56504e-09 -2.86013e-09 -2.87089e-09 -2.66384e-09
          -2.24133e-09 -1.81974e-09 -1.24554e-09 -7.30966e-09 2.69337e-08 -3.33495e-09 -6.97411e-09 -1.92666e-09 -1.8561e-09 -1.36524e-09 -1.93474e-09 -2.26059e-09
          -3.03299e-09 -3.04472e-09 -3.78117e-09 -2.53832e-09 -1.43327e-09 -1.6718e-09 -2.5369e-09 3.29665e-08 -9.58571e-10 -3.41548e-09 -4.16932e-09 -3.43524e-09
          -2.01486e-09 -2.33808e-09 -3.31072e-09 -4.09576e-09 -3.53049e-09 -6.5407e-09 -3.07615e-09 -1.91726e-09 -2.26014e-09 -1.95144e-09 3.58738e-08 2.94718e-10
          1.06945e-08 -7.32256e-09 -8.47956e-09 -7.5009e-09 -5.28911e-09 -3.8377e-09 -4.64783e-09 -3.01654e-09 -9.04914e-09 -2.34394e-09 -2.22001e-09 -2.97905e-09
          -1.12922e-08 1.54392e-09 -1.22378e-09 -3.58681e-08 -1.61399e-08 -2.2999e-08 -2.125e-08 -1.67316e-08 -4.03376e-09 -5.15667e-09 -4.28591e-09 -1.41249e-08
          -1.04006e-09 -1.48565e-09 -3.29036e-09 -3.42314e-08 -4.41795e-08 -3.06752e-09 -6.23809e-08 -2.15416e-08 -4.80679e-08 -2.65082e-08 -3.66386e-08 -2.59621e-09
          -2.85423e-09 -3.78754e-09 -1.89869e-08 -8.35323e-10 -1.22398e-09 -3.57041e-09 -3.54949e-08 -3.95876e-08 -2.40793e-09 -2.26677e-08 -1.55256e-08 -7.26206e-08
          -2.21456e-08 -6.0257e-08 -2.29965e-09 -2.09445e-09 -4.03235e-09 -2.25642e-08 -7.26126e-10 -1.04283e-09 -3.71634e-09 -3.19578e-08 -3.57405e-08 -2.40232e-09
          -5.18755e-09 -6.8287e-09 -8.00916e-08 -1.34406e-08 -7.82046e-08 -2.05192e-09 -1.77685e-09 -3.98804e-09 -2.50736e-08 -9.46206e-10 -1.40938e-09 -4.19953e-09
          -2.86616e-08 -3.12593e-08 -2.17467e-09 -2.18537e-09 -4.62944e-09 -8.25923e-08 -5.78125e-09 -8.79704e-08 -1.48596e-09 -1.38585e-09 -4.99475e-09 -2.38959e-08
          -8.87989e-10 -1.29307e-09 -4.58828e-09 -2.42811e-08 -3.03162e-08 -3.79222e-09 -1.68086e-09 -3.57599e-09 -8.34166e-08 -3.50082e-09 -9.54469e-08 -1.73426e-09
          -1.41557e-09 -8.36356e-09 -2.08733e-08 -1.09396e-09 -1.24022e-09 -4.99126e-09 -1.74977e-08 -2.83773e-08 -5.13531e-09 -1.43144e-09 -3.05569e-09 -8.09163e-08
          -2.3537e-09 -1.00029e-07 -3.16701e-09 -1.58032e-09 -1.10978e-08 -1.84908e-08 -2.10495e-09 -1.31249e-09 -5.27806e-09 -1.36109e-08 -2.61589e-08 -5.78887e-09
          -8.63564e-10 -3.44998e-09 -7.60958e-08 -2.01533e-09 -8.88638e-08 -1.26522e-08 -3.17887e-09 -1.27681e-08 -1.60316e-08 -6.22109e-09 -2.30627e-09 -5.81631e-09
          -1.21934e-08 -2.53713e-08 -4.20563e-09 -7.44322e-10 -5.1959e-09 -6.62781e-08 -4.2535e-09 -6.46208e-08 -2.73422e-08 -4.20874e-09 -1.14826e-08 -1.13311e-08
          -1.28855e-08 -5.51035e-09 -6.92064e-09 -1.21329e-08 -2.72792e-08 -2.59095e-09 -1.32478e-09 -1.03157e-08 -4.70234e-08 -3.16919e-09 -5.67697e-08 -2.50926e-08
          -1.16948e-08 -9.41646e-09 -4.73332e-09 -1.23549e-08 -7.24128e-09 -5.98081e-09 -1.28706e-08 -2.48368e-08 -2.34649e-09 -2.56192e-09 -1.62904e-08 -4.15628e-08
          -2.41663e-09 -7.02196e-08 -1.66448e-08 -9.63593e-09 -6.92602e-09 -3.82299e-09 -1.02903e-08 -1.0022e-08 -5.1389e-09 -1.46709e-08 -2.01375e-08 -2.75874e-09
          -3.68573e-09 -1.25749e-08 -4.56346e-08 -1.8123e-09 -6.96951e-08 -2.19402e-08 -8.8526e-09 -5.40662e-09 -5.59754e-09 -1.24222e-08 -1.49193e-08 -4.06841e-09
          -1.37263e-08 -1.54736e-08 -4.37133e-09 -5.15631e-09 -1.34467e-08 -4.34485e-08 -3.56086e-09 -5.99888e-08 -2.40744e-08 -1.27417e-08 -3.75909e-09 -4.34846e-09
          -1.10889e-08 -2.22882e-08 -3.05204e-09 -1.17853e-08 -9.08674e-09 -3.04392e-09 -3.65384e-09 -1.92813e-08 -3.35004e-08 -4.90634e-09 -4.98963e-08 -2.74884e-08
          -1.83194e-08 -3.41991e-09 -3.69485e-09 -7.23416e-09 -2.74577e-08 -2.46636e-09 -1.12416e-08 -6.40256e-09 -2.15871e-09 -1.92695e-09 -2.26783e-08 -2.23765e-08
          -4.76299e-09 -3.82074e-08 -2.91265e-08 -2.90934e-08 -3.54937e-09 -3.91618e-09 -8.36584e-09 -3.14248e-08 -2.72236e-09 -9.75046e-09 -4.67616e-09 -1.48633e-09
          -1.39247e-09 -2.34129e-08 -1.35215e-08 -4.29017e-09 -2.91354e-08 -2.21529e-08 -4.95162e-08 -3.61063e-09 -3.67307e-09 -1.02844e-08 -3.31996e-08 -3.44025e-09
          -7.76312e-09 -3.74579e-09 -1.63851e-09 -1.31227e-09 -2.19869e-08 -8.52965e-09 -4.01072e-09 -2.35639e-08 -1.11805e-08 -6.53645e-08 -3.98356e-09 -4.57463e-09
          -1.26482e-08 -3.4967e-08 -3.83467e-09 -5.1517e-09 -2.55523e-09 -1.80508e-09 -1.48705e-09 -1.70788e-08 -7.34724e-09 -4.35653e-09 -2.27629e-08 -7.13911e-09
          -6.89241e-08 -5.08204e-09 -6.97894e-09 -1.4162e-08 -3.73452e-08 -5.44004e-09 -2.53955e-09 -1.37996e-09 -1.2747e-09 -1.37211e-09 -9.75193e-09 -6.65331e-09
          -4.64706e-09 -2.45585e-08 -6.91457e-09 -6.18872e-08 -8.43992e-09 -1.20899e-08 -1.95336e-08 -3.94642e-08 -6.86555e-09 -7.88707e-10 -5.8702e-10 -4.37495e-10
          -4.40511e-10 -2.67257e-09 -2.84617e-09 -2.31679e-09 -1.42408e-08 -7.14714e-09 -3.60608e-08 -1.54667e-08 -1.35859e-08 -1.557e-08 -2.18934e-08 -3.68254e-09
        </DataArray>
        <DataArray type="Float32" Name="z[0]" NumberOfComponents="1" format="ascii">
          0.150578 0.150579 0.15058 0.150582 0.150582 0.150583 0.150584 0.150585 0.150585 0.150586 0.150587 0.150588
          0.150589 0.150591 0.150596 0.150581 0.150582 0.150583 0.150585 0.150586 0.150587 0.150587 0.150588 0.150588
          0.150589 0.15059 0.150591 0.150593 0.150595 0.150599 0.150584 0.150585 0.150587 0.150588 0.150589 0.15059
          0.15059 0.150591 0.150592 0.150593 0.150593 0.150595 0.150596 0.150598 0.150602 0.150588 0.150589 0.15059
          0.150591 0.150592 0.150593 0.150594 0.150594 0.150595 0.150596 0.150597 0.150598 0.150599 0.150601 0.150605
          0.150591 0.150592 0.150593 0.150594 0.150595 0.150596 0.150597 0.150597 0.150598 0.150599 0.1506 0.150601
          0.150602 0.150604 0.150609 0.150594 0.150595 0.150596 0.150597 0.150598 0.150599 0.1506 0.1506 0.150601