<?xml version="1.0"?>
<VTKFile type="UnstructuredGrid" version="0.1" byte_order="LittleEndian">
  <UnstructuredGrid>
    <Piece NumberOfCells="360" NumberOfPoints="800">
      <CellData Scalars="pressure[0]">
        <DataArray type="Float32" Name="pressure[0]" NumberOfComponents="1" format="ascii">
          2.11621e+07 2.11768e+07 2.21686e+07 2.30454e+07 2.33979e+07 2.38106e+07 2.39453e+07 2.39943e+07 2.40536e+07 2.41164e+07 2.42865e+07 2.45737e+07
          2.4795e+07 2.53997e+07 2.61131e+07 2.12066e+07 2.12213e+07 2.23222e+07 2.32527e+07 2.35992e+07 2.40076e+07 2.41039e+07 2.41413e+07 2.42011e+07
          2.42715e+07 2.45138e+07 2.4811e+07 2.49837e+07 2.55968e+07 2.62781e+07 2.12514e+07 2.12659e+07 2.23906e+07 2.34224e+07 2.37372e+07 2.41158e+07
          2.42304e+07 2.42849e+07 2.43617e+07 2.44596e+07 2.47936e+07 2.51388e+07 2.53e+07 2.58512e+07 2.6485e+07 2.12971e+07 2.13168e+07 2.22179e+07
          2.35694e+07 2.38849e+07 2.42722e+07 2.43933e+07 2.44782e+07 2.45933e+07 2.47396e+07 2.51645e+07 2.55486e+07 2.56997e+07 2.61463e+07 2.67392e+07
          2.13738e+07 2.14028e+07 1.97735e+07 2.36942e+07 2.42681e+07 2.48554e+07 2.4937e+07 2.49785e+07 2.50568e+07 2.53111e+07 2.5633e+07 2.59783e+07
          2.60994e+07 2.64717e+07 2.69875e+07 2.15593e+07 2.16028e+07 2.18383e+07 2.44177e+07 2.49212e+07 2.53786e+07 2.54428e+07 2.55117e+07 2.57887e+07
          2.66304e+07 2.65244e+07 2.63696e+07 2.64678e+07 2.67992e+07 2.72628e+07 2.17895e+07 2.18386e+07 2.25505e+07 2.5126e+07 2.55474e+07 2.58989e+07
          2.59562e+07 2.60206e+07 2.60893e+07 2.63852e+07 2.6577e+07 2.66303e+07 2.67417e+07 2.71432e+07 2.76379e+07 2.21098e+07 2.21625e+07 2.3066e+07
          2.55826e+07 2.60636e+07 2.63336e+07 2.63857e+07 2.64322e+07 2.64975e+07 2.66628e+07 2.6795e+07 2.68545e+07 2.70302e+07 2.74926e+07 2.81479e+07
          2.25594e+07 2.26182e+07 2.35126e+07 2.58337e+07 2.65399e+07 2.67632e+07 2.68489e+07 2.69301e+07 2.69209e+07 2.69794e+07 2.70362e+07 2.70696e+07
          2.72632e+07 2.78796e+07 2.86544e+07 2.31074e+07 2.31991e+07 2.40139e+07 2.48652e+07 2.69012e+07 2.71362e+07 2.73341e+07 2.75177e+07 2.7366e+07
          2.73173e+07 2.73209e+07 2.73514e+07 2.75762e+07 2.82744e+07 2.89629e+07 2.39609e+07 2.43274e+07 2.48239e+07 2.53948e+07 2.72451e+07 2.74221e+07
          2.77415e+07 2.80208e+07 2.78179e+07 2.76902e+07 2.76212e+07 2.76649e+07 2.78696e+07 2.86303e+07 2.95274e+07 2.55269e+07 2.56762e+07 2.57979e+07
          2.61776e+07 2.75988e+07 2.77055e+07 2.81624e+07 2.85425e+07 2.86194e+07 2.84289e+07 2.83924e+07 2.84458e+07 2.88691e+07 2.93941e+07 3.01907e+07
          2.6586e+07 2.66182e+07 2.65037e+07 2.6851e+07 2.80661e+07 2.81731e+07 2.86641e+07 2.90982e+07 2.91939e+07 2.92223e+07 2.92321e+07 2.94268e+07
          2.98746e+07 3.06054e+07 3.07794e+07 2.74208e+07 2.74524e+07 2.72189e+07 2.81256e+07 2.88422e+07 2.89205e+07 2.93252e+07 2.9648e+07 2.97152e+07
          2.97998e+07 2.98833e+07 3.03089e+07 3.08699e+07 3.13115e+07 3.11625e+07 2.80994e+07 2.81006e+07 2.81188e+07 2.9158e+07 2.95556e+07 2.96132e+07
          2.98847e+07 3.00799e+07 3.01295e+07 3.02059e+07 3.03522e+07 3.10143e+07 3.15317e+07 3.16993e+07 3.16129e+07 2.87103e+07 2.87376e+07 2.88361e+07
          2.9785e+07 2.99945e+07 3.00477e+07 3.02405e+07 3.03689e+07 3.04166e+07 3.04861e+07 3.07493e+07 3.13855e+07 3.18608e+07 3.214e+07 3.20398e+07
          2.9341e+07 2.93928e+07 2.97648e+07 3.02486e+07 3.03582e+07 3.03975e+07 3.05013e+07 3.05923e+07 3.0639e+07 3.06996e+07 3.10431e+07 3.17975e+07
          3.23077e+07 3.25795e+07 3.24333e+07 2.98543e+07 2.99134e+07 3.02509e+07 3.05079e+07 3.06218e+07 3.06662e+07 3.0748e+07 3.08166e+07 3.08651e+07
          3.0921e+07 3.1341e+07 3.21367e+07 3.26574e+07 3.28827e+07 3.2826e+07 3.01496e+07 3.02144e+07 3.0416e+07 3.07043e+07 3.08547e+07 3.09021e+07
          3.09746e+07 3.10355e+07 3.10805e+07 3.11346e+07 3.15952e+07 3.24729e+07 3.30055e+07 3.31782e+07 3.33586e+07 3.03895e+07 3.04474e+07 3.06286e+07
          3.09146e+07 3.10626e+07 3.11105e+07 3.1181e+07 3.12389e+07 3.12842e+07 3.13437e+07 3.17997e+07 3.27654e+07 3.33494e+07 3.34884e+07 3.3867e+07
          3.0594e+07 3.06588e+07 3.08041e+07 3.10688e+07 3.12511e+07 3.13031e+07 3.13786e+07 3.14396e+07 3.14986e+07 3.15723e+07 3.22138e+07 3.32454e+07
          3.36704e+07 3.38163e+07 3.42703e+07 3.07907e+07 3.08577e+07 3.09879e+07 3.12462e+07 3.14317e+07 3.14882e+07 3.1575e+07 3.16445e+07 3.17195e+07
          3.18036e+07 3.26663e+07 3.3737e+07 3.40022e+07 3.41762e+07 3.46641e+07 3.09717e+07 3.10335e+07 3.11885e+07 3.14599e+07 3.16123e+07 3.16764e+07
          3.17777e+07 3.18579e+07 3.19533e+07 3.20567e+07 3.30542e+07 3.41477e+07 3.43758e+07 3.45688e+07 3.4955e+07 3.11388e+07 3.11979e+07 3.13348e+07
          3.16064e+07 3.17996e+07 3.18652e+07 3.19788e+07 3.20717e+07 3.2187e+07 3.2324e+07 3.34797e+07 3.45085e+07 3.47606e+07 3.49368e+07 3.52157e+07
        </DataArray>
        <DataArray type="Float32" Name="pressure[1]" NumberOfComponents="1" format="ascii">
          2.11621e+07 2.11768e+07 2.21686e+07 2.30454e+07 2.33979e+07 2.38106e+07 2.39453e+07 2.39943e+07 2.40536e+07 2.41164e+07 2.42865e+07 2.45737e+07
          2.4795e+07 2.53997e+07 2.61131e+07 2.12066e+07 2.12213e+07 2.23222e+07 2.32527e+07 2.35992e+07 2.40076e+07 2.41039e+07 2.41413e+07 2.42011e+07
          2.42715e+07 2.45138e+07 2.4811e+07 2.49837e+07 2.55968e+07 2.62781e+07 2.12514e+07 2.12659e+07 2.23906e+07 2.34224e+07 2.37372e+07 2.41158e+07
          2.42304e+07 2.42849e+07 2.43617e+07 2.44596e+07 2.47936e+07 2.51388e+07 2.53e+07 2.58512e+07 2.6485e+07 2.12971e+07 2.13168e+07 2.22179e+07
          2.35694e+07 2.38849e+07 2.42722e+07 2.43933e+07 2.44782e+07 2.45933e+07 2.47396e+07 2.51645e+07 2.55486e+07 2.56997e+07 2.61463e+07 2.67392e+07
          2.13738e+07 2.14028e+07 1.97735e+07 2.36942e+07 2.42681e+07 2.48554e+07 2.4937e+07 2.49785e+07 2.50568e+07 2.53111e+07 2.5633e+07 2.59783e+07
          2.60994e+07 2.64717e+07 2.69875e+07 2.15593e+07 2.16028e+07 2.18383e+07 2.44177e+07 2.49212e+07 2.53786e+07 2.54428e+07 2.55117e+07 2.57887e+07
          2.66304e+07 2.65244e+07 2.63696e+07 2.64678e+07 2.67992e+07 2.72628e+07 2.17895e+07 2.18386e+07 2.25505e+07 2.5126e+07 2.55474e+07 2.58989e+07
          2.59562e+07 2.60206e+07 2.60893e+07 2.63852e+07 2.6577e+07 2.66303e+07 2.67417e+07 2.71432e+07 2.76379e+07 2.21098e+07 2.21625e+07 2.3066e+07
          2.55826e+07 2.60636e+07 2.63336e+07 2.63857e+07 2.64322e+07 2.64975e+07 2.66628e+07 2.6795e+07 2.68545e+07 2.70302e+07 2.74926e+07 2.81479e+07
          2.25594e+07 2.26182e+07 2.35126e+07 2.58337e+07 2.65399e+07 2.67632e+07 2.68489e+07 2.69301e+07 2.69209e+07 2.69794e+07 2.70362e+07 2.70696e+07
          2.72632e+07 2.78796e+07 2.86544e+07 2.31074e+07 2.31991e+07 2.40139e+07 2.48652e+07 2.69012e+07 2.71362e+07 2.73341e+07 2.75177e+07 2.7366e+07
          2.73173e+07 2.73209e+07 2.73514e+07 2.75762e+07 2.82744e+07 2.89629e+07 2.39609e+07 2.43274e+07 2.48239e+07 2.53948e+07 2.72451e+07 2.74221e+07
          2.77415e+07 2.80208e+07 2.78179e+07 2.76902e+07 2.76212e+07 2.76649e+07 2.78696e+07 2.86303e+07 2.95274e+07 2.55269e+07 2.56762e+07 2.57979e+07
          2.61776e+07 2.75988e+07 2.77055e+07 2.81624e+07 2.85425e+07 2.86194e+07 2.84289e+07 2.83924e+07 2.84458e+07 2.88691e+07 2.93941e+07 3.01907e+07
          2.6586e+07 2.66182e+07 2.65037e+07 2.6851e+07 2.80661e+07 2.81731e+07 2.86641e+07 2.90982e+07 2.91939e+07 2.92223e+07 2.92321e+07 2.94268e+07
          2.98746e+07 3.06054e+07 3.07794e+07 2.74208e+07 2.74524e+07 2.72189e+07 2.81256e+07 2.88422e+07 2.89205e+07 2.93252e+07 2.9648e+07 2.97152e+07
          2.97998e+07 2.98833e+07 3.03089e+07 3.08699e+07 3.13115e+07 3.11625e+07 2.80994e+07 2.81006e+07 2.81188e+07 2.9158e+07 2.95556e+07 2.96132e+07
          2.98847e+07 3.00799e+07 3.01295e+07 3.02059e+07 3.03522e+07 3.10143e+07 3.15317e+07 3.16993e+07 3.16129e+07 2.87103e+07 2.87376e+07 2.88361e+07
          2.9785e+07 2.99945e+07 3.00477e+07 3.02405e+07 3.03689e+07 3.04166e+07 3.04861e+07 3.07493e+07 3.13855e+07 3.18608e+07 3.214e+07 3.20398e+07
          2.9341e+07 2.93928e+07 2.97648e+07 3.02486e+07 3.03582e+07 3.03975e+07 3.05013e+07 3.05923e+07 3.0639e+07 3.06996e+07 3.10431e+07 3.17975e+07
          3.23077e+07 3.25795e+07 3.24333e+07 2.98543e+07 2.99134e+07 3.02509e+07 3.05079e+07 3.06218e+07 3.06662e+07 3.0748e+07 3.08166e+07 3.08651e+07
          3.0921e+07 3.1341e+07 3.21367e+07 3.26574e+07 3.28827e+07 3.2826e+07 3.01496e+07 3.02144e+07 3.0416e+07 3.07043e+07 3.08547e+07 3.09021e+07
          3.09746e+07 3.10355e+07 3.10805e+07 3.11346e+07 3.15952e+07 3.24729e+07 3.30055e+07 3.31782e+07 3.33586e+07 3.03895e+07 3.04474e+07 3.06286e+07
          3.09146e+07 3.10626e+07 3.11105e+07 3.1181e+07 3.12389e+07 3.12842e+07 3.13437e+07 3.17997e+07 3.27654e+07 3.33494e+07 3.34884e+07 3.3867e+07
          3.0594e+07 3.06588e+07 3.08041e+07 3.10688e+07 3.12511e+07 3.13031e+07 3.13786e+07 3.14396e+07 3.14986e+07 3.15723e+07 3.22138e+07 3.32454e+07
          3.36704e+07 3.38163e+07 3.42703e+07 3.07907e+07 3.08577e+07 3.09879e+07 3.12462e+07 3.14317e+07 3.14882e+07 3.1575e+07 3.16445e+07 3.17195e+07
          3.18036e+07 3.26663e+07 3.3737e+07 3.40022e+07 3.41762e+07 3.46641e+07 3.09717e+07 3.10335e+07 3.11885e+07 3.14599e+07 3.16123e+07 3.16764e+07
          3.17777e+07 3.18579e+07 3.19533e+07 3.20567e+07 3.30542e+07 3.41477e+07 3.43758e+07 3.45688e+07 3.4955e+07 3.11388e+07 3.11979e+07 3.13348e+07
          3.16064e+07 3.17996e+07 3.18652e+07 3.19788e+07 3.20717e+07 3.2187e+07 3.2324e+07 3.34797e+07 3.45085e+07 3.47606e+07 3.49368e+07 3.52157e+07
        </DataArray>
        <DataArray type="Float32" Name="pressure[2]" NumberOfComponents="1" format="ascii">
          2.11621e+07 2.11768e+07 2.21686e+07 2.30454e+07 2.33979e+07 2.38106e+07 2.39453e+07 2.39943e+07 2.40536e+07 2.41164e+07 2.42865e+07 2.45737e+07
          2.4795e+07 2.53997e+07 2.61131e+07 2.12066e+07 2.12213e+07 2.23222e+07 2.32527e+07 2.35992e+07 2.40076e+07 2.41039e+07 2.41413e+07 2.42011e+07
          2.42715e+07 2.45138e+07 2.4811e+07 2.49837e+07 2.55968e+07 2.62781e+07 2.12514e+07 2.12659e+07 2.23906e+07 2.34224e+07 2.37372e+07 2.41158e+07
          2.42304e+07 2.42849e+07 2.43617e+07 2.44596e+07 2.47936e+07 2.51388e+07 2.53e+07 2.58512e+07 2.6485e+07 2.12971e+07 2.13168e+07 2.22179e+07
          2.35694e+07 2.38849e+07 2.42722e+07 2.43933e+07 2.44782e+07 2.45933e+07 2.47396e+07 2.51645e+07 2.55486e+07 2.56997e+07 2.61463e+07 2.67392e+07
          2.13738e+07 2.14028e+07 1.97735e+07 2.36942e+07 2.42681e+07 2.48554e+07 2.4937e+07 2.49785e+07 2.50568e+07 2.53111e+07 2.5633e+07 2.59783e+07
          2.60994e+07 2.64717e+07 2.69875e+07 2.15593e+07 2.16028e+07 2.18383e+07 2.44177e+07 2.49212e+07 2.53786e+07 2.54428e+07 2.55117e+07 2.57887e+07
          2.66304e+07 2.65244e+07 2.63696e+07 2.64678e+07 2.67992e+07 2.72628e+07 2.17895e+07 2.18386e+07 2.25505e+07 2.5126e+07 2.55474e+07 2.58989e+07
          2.59562e+07 2.60206e+07 2.60893e+07 2.63852e+07 2.6577e+07 2.66303e+07 2.67417e+07 2.71432e+07 2.76379e+07 2.21098e+07 2.21625e+07 2.3066e+07
          2.55826e+07 2.60636e+07 2.63336e+07 2.63857e+07 2.64322e+07 2.64975e+07 2.66628e+07 2.6795e+07 2.68545e+07 2.70302e+07 2.74926e+07 2.81479e+07
          2.25594e+07 2.26182e+07 2.35126e+07 2.58337e+07 2.65399e+07 2.67632e+07 2.68489e+07 2.69301e+07 2.69209e+07 2.69794e+07 2.70362e+07 2.70696e+07
          2.72632e+07 2.78796e+07 2.86544e+07 2.31074e+07 2.31991e+07 2.40139e+07 2.48652e+07 2.69012e+07 2.71362e+07 2.73341e+07 2.75177e+07 2.7366e+07
          2.73173e+07 2.73209e+07 2.73514e+07 2.75762e+07 2.82744e+07 2.89629e+07 2.39609e+07 2.43274e+07 2.48239e+07 2.53948e+07 2.72451e+07 2.74221e+07
          2.77415e+07 2.80208e+07 2.78179e+07 2.76902e+07 2.76212e+07 2.76649e+07 2.78696e+07 2.86303e+07 2.95274e+07 2.55269e+07 2.56762e+07 2.57979e+07
          2.61776e+07 2.75988e+07 2.77055e+07 2.81624e+07 2.85425e+07 2.86194e+07 2.84289e+07 2.83924e+07 2.84458e+07 2.88691e+07 2.93941e+07 3.01907e+07
          2.6586e+07 2.66182e+07 2.65037e+07 2.6851e+07 2.80661e+07 2.81731e+07 2.86641e+07 2.90982e+07 2.91939e+07 2.92223e+07 2.92321e+07 2.94268e+07
          2.98746e+07 3.06054e+07 3.07794e+07 2.74208e+07 2.74524e+07 2.72189e+07 2.81256e+07 2.88422e+07 2.89205e+07 2.93252e+07 2.9648e+07 2.97152e+07
          2.97998e+07 2.98833e+07 3.03089e+07 3.08699e+07 3.13115e+07 3.11625e+07 2.80994e+07 2.81006e+07 2.81188e+07 2.9158e+07 2.95556e+07 2.96132e+07
          2.98847e+07 3.00799e+07 3.01295e+07 3.02059e+07 3.03522e+07 3.10143e+07 3.15317e+07 3.16993e+07 3.16129e+07 2.87103e+07 2.87376e+07 2.88361e+07
          2.9785e+07 2.99945e+07 3.00477e+07 3.02405e+07 3.03689e+07 3.04166e+07 3.04861e+07 3.07493e+07 3.13855e+07 3.18608e+07 3.214e+07 3.20398e+07
          2.9341e+07 2.93928e+07 2.97648e+07 3.02486e+07 3.03582e+07 3.03975e+07 3.05013e+07 3.05923e+07 3.0639e+07 3.06996e+07 3.10431e+07 3.17975e+07
          3.23077e+07 3.25795e+07 3.24333e+07 2.98543e+07 2.99134e+07 3.02509e+07 3.05079e+07 3.06218e+07 3.06662e+07 3.0748e+07 3.08166e+07 3.08651e+07
          3.0921e+07 3.1341e+07 3.21367e+07 3.26574e+07 3.28827e+07 3.2826e+07 3.01496e+07 3.02144e+07 3.0416e+07 3.07043e+07 3.08547e+07 3.09021e+07
          3.09746e+07 3.10355e+07 3.10805e+07 3.11346e+07 3.15952e+07 3.24729e+07 3.30055e+07 3.31782e+07 3.33586e+07 3.03895e+07 3.04474e+07 3.06286e+07
          3.09146e+07 3.10626e+07 3.11105e+07 3.1181e+07 3.12389e+07 3.12842e+07 3.13437e+07 3.17997e+07 3.27654e+07 3.33494e+07 3.34884e+07 3.3867e+07
          3.0594e+07 3.06588e+07 3.08041e+07 3.10688e+07 3.12511e+07 3.13031e+07 3.13786e+07 3.14396e+07 3.14986e+07 3.15723e+07 3.22138e+07 3.32454e+07
          3.36704e+07 3.38163e+07 3.42703e+07 3.07907e+07 3.08577e+07 3.09879e+07 3.12462e+07 3.14317e+07 3.14882e+07 3.1575e+07 3.16445e+07 3.17195e+07
          3.18036e+07 3.26663e+07 3.3737e+07 3.40022e+07 3.41762e+07 3.46641e+07 3.09717e+07 3.10335e+07 3.11885e+07 3.14599e+07 3.16123e+07 3.16764e+07
          3.17777e+07 3.18579e+07 3.19533e+07 3.20567e+07 3.30542e+07 3.41477e+07 3.43758e+07 3.45688e+07 3.4955e+07 3.11388e+07 3.11979e+07 3.13348e+07
          3.16064e+07 3.17996e+07 3.18652e+07 3.19788e+07 3.20717e+07 3.2187e+07 3.2324e+07 3.34797e+07 3.45085e+07 3.47606e+07 3.49368e+07 3.52157e+07
        </DataArray>
        <DataArray type="Float32" Name="velocity[0]" NumberOfComponents="1" format="ascii">
          -1.65775e-09 6.28183e-08 -1.46439e-10 -2.1833e-08 -7.37615e-10 -2.50396e-09 -3.50423e-09 -9.47954e-10 -1.94425e-09 -2.77128e-09 -2.26527e-09 -3.35903e-09
          -2.50721e-09 -6.14237e-10 -2.49712e-09 -9.55992e-09 1.85771e-07 3.10243e-10 -7.49153e-08 -6.9496e-10 -6.03351e-10 -2.89175e-10 -1.24125e-09 -6.41498e-09
          -8.46841e-09 -4.88315e-09 -1.37949e-08 -8.76822e-09 -1.92739e-09 -6.61905e-09 -3.26452e-08 2.87163e-07 1.70384e-09 -8.32438e-08 -9.77864e-11 7.69133e-10
          6.99069e-11 -3.91643e-09 -1.35612e-08 -1.48599e-08 -6.19992e-09 -3.33089e-08 -1.15809e-08 -3.97271e-09 -9.84761e-09 -3.14055e-08 3.18022e-07 1.01709e-08
          -1.76061e-08 -2.06951e-09 -1.48694e-08 -2.94249e-08 -2.61955e-08 -2.34776e-08 -2.51889e-08 -8.1973e-09 -6.1271e-08 -7.9292e-09 -5.53649e-09 -1.3239e-08
          -6.8989e-08 6.2841e-08 3.56216e-09 -5.84587e-08 -8.17693e-09 -4.43013e-08 -6.38965e-08 -6.10337e-08 -2.72549e-08 -3.30919e-08 -1.67429e-08 -1.11503e-07
          -4.08828e-09 -4.96168e-09 -1.60877e-08 -1.33367e-07 -1.66911e-07 -6.77967e-09 -9.9018e-08 -1.4423e-08 -9.6739e-08 -6.63985e-08 -9.19574e-08 -1.51592e-08
          -1.47301e-08 -9.65314e-09 -1.27778e-07 -2.26131e-09 -3.86396e-09 -1.79007e-08 -1.37435e-07 -1.48532e-07 -2.54198e-09 -3.2591e-08 -1.3334e-08 -1.55201e-07
          -4.77849e-08 -1.42509e-07 -5.23812e-09 1.7035e-09 -1.90722e-09 -1.09965e-07 -1.59827e-09 -3.64641e-09 -1.91109e-08 -1.2611e-07 -1.37136e-07 -2.41262e-09
          -5.0464e-09 -8.33291e-09 -1.83873e-07 -2.68575e-08 -2.13659e-07 -4.97047e-09 -1.44749e-09 -1.06722e-08 -1.11103e-07 -1.20701e-09 -3.63861e-09 -2.05051e-08
          -1.14308e-07 -1.23954e-07 -3.54276e-09 1.4725e-09 -5.14277e-09 -1.92194e-07 -1.06592e-08 -2.77594e-07 -3.57191e-09 -1.79893e-09 -1.95101e-08 -1.02725e-07
          -1.08411e-09 -3.2546e-09 -2.2385e-08 -9.38016e-08 -1.0041e-07 -1.35859e-08 3.7251e-10 -3.96606e-09 -1.95113e-07 -3.6121e-09 -3.3998e-07 -3.49714e-09
          -2.47215e-09 -3.42074e-08 -8.05606e-08 -1.69158e-09 -2.92492e-09 -2.4259e-08 -5.82169e-08 -7.30085e-08 -3.6606e-08 -2.98803e-09 -4.70502e-09 -1.99065e-07
          -1.24426e-09 -4.02403e-07 -4.59673e-09 -4.28131e-09 -4.00619e-08 -5.70149e-08 -4.17674e-09 -4.64864e-09 -2.54674e-08 -3.31809e-08 -5.82892e-08 -5.12076e-08
          -2.51619e-09 -7.20002e-09 -2.04664e-07 -1.04234e-09 -4.37833e-07 -1.31111e-08 -5.17698e-09 -3.42286e-08 -3.74179e-08 -1.09181e-08 -7.3089e-09 -2.61433e-08
          -2.95836e-08 -5.83779e-08 -4.20342e-08 -2.23601e-09 -1.18155e-08 -1.94722e-07 -1.47947e-09 -4.38982e-07 -3.87137e-08 -5.47939e-09 -2.4044e-08 -1.7999e-08
          -2.21483e-08 -1.15126e-08 -2.64407e-08 -3.25963e-08 -6.76935e-08 -2.5509e-08 -2.4308e-09 -1.70118e-08 -1.78972e-07 -1.49551e-09 -4.08265e-07 -6.8169e-08
          -1.02483e-08 -1.42189e-08 -5.42418e-09 -2.69177e-08 -2.10839e-08 -2.51358e-08 -4.06885e-08 -6.45447e-08 -1.41799e-08 -2.35866e-09 -2.22021e-08 -1.74542e-07
          -1.04594e-09 -3.65846e-07 -8.21212e-08 -1.77709e-08 -1.03098e-08 -2.91442e-09 -2.51305e-08 -3.31365e-08 -2.23133e-08 -5.02235e-08 -5.16805e-08 -6.61162e-09
          -2.78932e-09 -2.7731e-08 -1.71262e-07 -1.27311e-09 -3.09168e-07 -8.54675e-08 -2.57451e-08 -6.58956e-09 -4.01858e-09 -2.85186e-08 -4.89058e-08 -1.87342e-08
          -5.34363e-08 -4.08289e-08 -3.0835e-09 -3.69346e-09 -3.91851e-08 -1.49341e-07 -2.4653e-09 -2.44324e-07 -8.58842e-08 -4.0333e-08 -2.85025e-09 -3.99381e-09
          -2.33717e-08 -7.27192e-08 -1.48593e-08 -5.21151e-08 -3.23649e-08 -1.32413e-09 -2.45929e-09 -5.76771e-08 -1.07099e-07 -3.79252e-09 -1.86982e-07 -9.27116e-08
          -6.08542e-08 -2.04191e-09 -2.70578e-09 -1.51969e-08 -9.51598e-08 -1.15934e-08 -4.67329e-08 -2.29629e-08 -9.42735e-10 -1.00253e-09 -7.14646e-08 -6.79334e-08
          -3.99074e-09 -1.33694e-07 -9.27926e-08 -9.58405e-08 -1.18633e-09 -2.23279e-09 -1.99157e-08 -1.08883e-07 -1.01532e-08 -3.86472e-08 -1.54341e-08 -1.16604e-09
          -4.7876e-10 -7.62638e-08 -3.86796e-08 -3.33479e-09 -9.78661e-08 -6.01006e-08 -1.66571e-07 -2.08765e-09 -3.18735e-09 -2.96118e-08 -1.15586e-07 -1.09373e-08
          -2.94891e-08 -1.03994e-08 -1.08792e-09 -1.12022e-10 -7.10076e-08 -2.02725e-08 -2.86507e-09 -7.70237e-08 -2.51855e-08 -2.31453e-07 -3.28267e-09 -5.87977e-09
          -3.59983e-08 -1.20902e-07 -1.25792e-08 -1.85289e-08 -5.29618e-09 -1.74961e-09 -6.66547e-10 -5.25802e-08 -1.38345e-08 -2.81055e-09 -7.29305e-08 -1.36887e-08
          -2.44879e-07 -2.99236e-09 -1.12802e-08 -3.94194e-08 -1.26304e-07 -1.5623e-08 -8.64073e-09 -2.11355e-09 -7.87991e-10 -4.39601e-10 -2.63185e-08 -1.0365e-08
          -2.31373e-09 -7.72138e-08 -1.10503e-08 -2.11091e-07 -4.15084e-09 -1.94407e-08 -5.17984e-08 -1.31699e-07 -2.0414e-08 -2.2877e-09 -4.75439e-10 1.77636e-10
          6.8954e-11 -6.23721e-09 -3.96355e-09 -8.48492e-10 -3.94093e-08 -5.15062e-09 -9.12871e-08 -2.739e-09 -1.17943e-08 -3.09586e-08 -6.7715e-08 -1.14656e-08
        </DataArray>
        <DataArray type="Float32" Name="velocity[1]" NumberOfComponents="1" format="ascii">
          2.57634e-25 1.01637e-23 4.36255e-26 -3.39311e-24 1.14634e-25 0 5.44598e-25 1.11816e-25 -8.40266e-26 5.5129e-24 -3.40813e-24 -3.91425e-26
          2.17045e-24 -9.42488e-25 3.8937e-25 9.70457e-25 9.00998e-24 3.82577e-26 -4.85651e-24 -6.98249e-26 8.63554e-24 1.32033e-24 2.36041e-25 -8.45569e-24
          4.96599e-26 0 2.4357e-26 -5.97288e-26 -7.72268e-27 2.52515e-25 2.61726e-24 -1.32543e-23 -3.37732e-24 3.56217e-24 1.11038e-25 0
          1.07764e-24 5.42161e-25 -7.17969e-25 0 6.43319e-24 -1.08502e-23 0 9.88373e-25 -2.44946e-25 -5.72166e-24 2.33015e-23 -2.36244e-24
          2.31819e-24 6.27328e-25 1.10948e-23 -2.15072e-23 2.80475e-23 -2.00901e-24 -7.45547e-25 3.37248e-24 -3.93879e-24 2.47356e-24 -1.1048e-24 8.31851e-25
          -7.44552e-26 -7.6084e-23 3.56854e-24 4.26393e-24 5.57966e-26 -2.47735e-24 -2.03993e-25 5.54523e-26 4.02404e-24 -5.01143e-24 5.55156e-24 -8.94332e-24
          4.33942e-26 1.30217e-25 -1.33256e-24 -8.04552e-26 4.67179e-24 -2.53646e-25 3.90325e-24 -5.69741e-26 -4.27159e-24 0 -1.78032e-25 3.19609e-24
          -1.04354e-23 -1.32162e-23 1.41105e-23 -1.07156e-24 5.65424e-25 1.33592e-24 -7.29346e-25 5.18931e-25 0 3.55615e-24 -5.21079e-25 -1.11365e-23
          9.36687e-25 -1.13871e-24 -8.9472e-26 -1.09401e-26 3.03177e-25 2.11449e-25 -1.1158e-25 1.38003e-26 -1.44942e-24 -2.01973e-25 1.0167e-23 1.08533e-24
          1.34594e-24 -2.20759e-26 1.26984e-23 1.55256e-25 7.24232e-26 4.57696e-25 8.57795e-26 -1.34146e-24 -8.12679e-24 9.17385e-26 -2.46697e-25 1.6661e-24
          -7.90997e-25 -7.30095e-24 -1.61095e-25 -1.58146e-24 -1.8743e-25 1.99479e-24 0 0 3.34947e-25 -9.38131e-26 2.74832e-25 2.76574e-24
          1.56021e-25 6.37156e-26 1.03267e-27 -8.48441e-24 3.46449e-24 1.66359e-24 -6.36728e-25 -2.27943e-24 2.53979e-24 -4.77826e-24 5.29277e-24 -2.9098e-25
          -5.49944e-27 2.49946e-25 2.69478e-24 -6.85526e-25 0 -1.81279e-24 -1.30474e-25 -1.88096e-25 2.16678e-24 -2.45247e-25 2.20876e-24 -4.09708e-27
          -3.16123e-24 8.81121e-24 6.01739e-26 1.48045e-25 -7.23654e-25 3.86078e-24 1.40284e-24 -8.55625e-26 4.27813e-26 -2.20257e-24 1.74014e-24 -1.13273e-25
          1.1109e-25 -1.37107e-24 -1.60653e-23 2.61447e-26 1.10126e-24 -2.37056e-24 8.8411e-26 6.06149e-25 1.48546e-24 -6.10061e-25 7.60367e-25 -6.14345e-26
          2.3945e-24 4.08925e-24 0 -9.48379e-27 4.41678e-25 1.86665e-24 4.49923e-26 -9.21003e-25 -2.76431e-24 6.24097e-27 -1.39496e-24 -6.13714e-25
          1.04118e-24 -6.3623e-25 -3.40049e-28 2.75706e-25 -3.05314e-27 5.15966e-25 -4.26008e-26 2.18509e-27 1.36772e-23 -3.73972e-26 -3.85442e-24 5.16658e-24
          -1.16878e-24 1.38154e-24 1.71491e-24 -3.44033e-24 4.53949e-28 -1.85946e-24 -2.66334e-24 -4.50512e-24 3.03748e-27 1.99283e-25 4.39024e-25 -5.41906e-28
          -3.05708e-26 -6.71601e-24 1.76619e-24 0 0 2.29268e-25 2.95135e-24 -3.96024e-25 3.46801e-24 0 9.66245e-25 0
          -2.66212e-25 4.21458e-25 -3.75234e-28 6.58747e-26 -6.06641e-24 8.12326e-28 3.95469e-28 4.20571e-28 3.18293e-24 -1.39537e-29 -9.41611e-25 -1.60794e-24
          -1.71077e-28 7.20692e-25 5.44617e-28 -4.23306e-26 1.36038e-24 -7.74857e-24 0 -8.01293e-24 0 4.18069e-29 2.35199e-24 -2.90795e-24
          -1.30887e-24 1.4174e-28 1.00595e-24 0 2.81253e-24 0 3.08001e-25 1.32882e-24 3.77039e-24 8.59693e-26 -4.90089e-24 -4.20843e-24
          -1.62291e-24 1.37091e-25 3.85885e-26 8.62402e-29 -1.33684e-24 -7.95799e-25 3.31556e-24 -1.71092e-24 1.85203e-24 -1.50233e-24 6.29173e-25 6.5418e-24
          -5.51846e-26 -3.3807e-24 7.78435e-24 4.1773e-24 -2.51397e-24 5.42261e-26 6.94779e-25 -2.78453e-28 7.82132e-25 3.17233e-28 -3.01837e-24 6.55611e-25
          -1.36973e-24 2.33817e-25 -2.02194e-24 -9.26242e-26 -4.3735e-24 -3.9359e-24 7.18013e-24 2.04586e-25 2.68668e-24 8.12085e-25 -2.71316e-25 -6.46613e-25
          -7.98401e-25 4.79183e-25 0 -3.10523e-26 -9.33972e-25 3.3926e-24 -5.96336e-24 5.96521e-24 -4.32944e-24 1.13289e-27 0 0
          1.80555e-25 -4.74695e-28 1.0373e-24 -9.04939e-25 -9.5314e-25 8.7768e-25 -1.47369e-24 -5.99352e-25 -9.94298e-25 1.70583e-26 4.16229e-25 -2.83172e-24
          1.0193e-23 -1.93026e-25 -4.88623e-24 3.5096e-25 7.07478e-25 -1.29259e-29 -6.31441e-25 -3.22702e-28 -3.91702e-28 8.85168e-26 -2.15204e-24 3.79412e-25
          -9.58488e-26 7.73258e-24 -3.20946e-24 0 -2.06257e-25 -6.44423e-25 4.97966e-24 -5.80341e-25 0 -3.55872e-25 -3.67702e-28 -2.89764e-25
          4.90863e-25 -9.68816e-25 -1.63554e-24 -2.65132e-25 -2.05217e-24 8.00467e-25 -2.21767e-23 0 2.2166e-23 -1.62349e-23 1.33962e-23 3.37111e-25
        </DataArray>
        <DataArray type="Float32" Name="velocity[2]" NumberOfComponents="1" format="ascii">
          -2.13386e-10 8.2229e-09 -5.85477e-09 -8.55412e-09 -3.72113e-09 -3.91496e-09 -3.92086e-09 -3.3726e-09 -3.44488e-09 -3.40607e-09 -3.09256e-09 -2.97514e-09
          -2.51167e-09 -1.90928e-09 -1.26993e-09 -1.29502e-09 3.06403e-08 -4.9923e-09 -1.67537e-08 -2.19104e-09 -2.4668e-09 -2.83902e-09 -3.22509e-09 -4.04221e-09
          -4.17525e-09 -3.42961e-09 -4.58304e-09 -3.05683e-09 -1.51773e-09 -1.70199e-09 -4.65344e-09 5.07977e-08 -1.6567e-09 -1.79192e-08 -4.47178e-09 -4.20463e-09
          -4.05494e-09 -4.519e-09 -5.89626e-09 -5.72517e-09 -3.98934e-09 -8.00768e-09 -3.50563e-09 -1.98408e-09 -2.26644e-09 -6.78584e-09 5.40967e-08 -3.01915e-10
          -7.88763e-09 -7.11412e-09 -8.71921e-09 -1.00998e-08 -8.41075e-09 -7.0445e-09 -6.85483e-09 -3.67209e-09 -1.23227e-08 -2.46574e-09 -2.19508e-09 -2.92644e-09
          -8.42219e-09 1.60514e-08 1.0932e-09 -1.3205e-08 -5.48969e-09 -1.08743e-08 -1.32977e-08 -1.21114e-08 -6.56327e-09 -8.31246e-09 -5.62672e-09 -2.12652e-08
          -1.04813e-09 -1.43576e-09 -3.18705e-09 -2.29016e-08 -2.89493e-08 -1.81154e-09 -2.05882e-08 -7.74972e-09 -2.07092e-08 -1.45722e-08 -1.93328e-08 -6.29355e-09
          -4.46626e-09 -2.32261e-10 -2.15494e-08 -6.57722e-10 -1.10806e-09 -3.40354e-09 -2.45472e-08 -2.69848e-08 -1.44269e-09 -7.95856e-09 -5.92596e-09 -3.01553e-08
          -1.06704e-08 -2.66524e-08 -1.59787e-09 -5.51302e-10 -7.61419e-10 -1.95494e-08 -5.33162e-10 -9.42319e-10 -3.51962e-09 -2.25959e-08 -2.51641e-08 -1.65442e-09
          -2.32698e-09 -3.23142e-09 -3.40813e-08 -6.51628e-09 -3.88418e-08 -1.19357e-09 -6.82782e-10 -2.28712e-09 -1.99828e-08 -7.02865e-10 -1.22956e-09 -3.92484e-09
          -2.04963e-08 -2.28184e-08 -1.77795e-09 -9.23472e-10 -2.27361e-09 -3.51948e-08 -3.20758e-09 -4.96506e-08 -6.28162e-10 -3.75873e-10 -3.13411e-09 -1.80077e-08
          -6.86238e-10 -1.14042e-09 -4.25888e-09 -1.752e-08 -2.03913e-08 -5.02946e-09 -1.64547e-09 -2.26504e-09 -3.59529e-08 -2.22245e-09 -6.06814e-08 -4.27935e-10
          -2.33622e-10 -5.37846e-09 -1.39435e-08 -8.81935e-10 -1.11828e-09 -4.58612e-09 -1.16044e-08 -1.60616e-08 -9.01795e-09 -1.96277e-09 -2.2359e-09 -3.63073e-08
          -1.27214e-09 -7.12646e-08 -3.29535e-10 -2.03236e-10 -6.62699e-09 -1.04126e-08 -1.61631e-09 -1.28994e-09 -4.58251e-09 -6.17824e-09 -1.12129e-08 -1.0184e-08
          -1.55578e-09 -2.3051e-09 -3.69339e-08 -9.28619e-10 -7.77565e-08 -2.2091e-09 -3.66893e-10 -5.77526e-09 -7.17274e-09 -2.77577e-09 -1.69762e-09 -4.7417e-09
          -5.13376e-09 -9.83583e-09 -7.51454e-09 -1.34757e-09 -2.884e-09 -3.55466e-08 -2.02525e-09 -7.9323e-08 -7.83441e-09 -8.8132e-10 -4.53028e-09 -4.47727e-09
          -5.3771e-09 -2.50911e-09 -4.62554e-09 -5.62836e-09 -1.15237e-08 -4.49342e-09 -9.99117e-10 -3.43761e-09 -3.20403e-08 -9.3333e-10 -7.33152e-08 -1.33182e-08
          -2.24554e-09 -3.01053e-09 -1.83598e-09 -5.90189e-09 -3.95745e-09 -4.03039e-09 -6.75034e-09 -1.08669e-08 -2.72373e-09 -1.05333e-09 -4.41252e-09 -3.1157e-08
          -6.01694e-10 -6.5404e-08 -1.57079e-08 -4.08595e-09 -2.6545e-09 -1.37533e-09 -5.28788e-09 -5.72747e-09 -3.39473e-09 -8.64104e-09 -8.99418e-09 -1.61285e-09
          -1.16185e-09 -5.38431e-09 -3.06706e-08 -8.05778e-10 -5.6128e-08 -1.76597e-08 -6.88493e-09 -3.54058e-09 -3.23264e-09 -7.26448e-09 -8.97749e-09 -2.64927e-09
          -9.42294e-09 -7.43203e-09 -1.06012e-09 -1.20654e-09 -6.98526e-09 -2.68452e-08 -1.82811e-09 -4.51439e-08 -1.79331e-08 -9.53982e-09 -2.55314e-09 -2.84814e-09
          -6.89668e-09 -1.3853e-08 -1.98186e-09 -9.27759e-09 -6.07452e-09 -8.93655e-10 -1.2702e-09 -1.05591e-08 -1.98206e-08 -2.66584e-09 -3.57822e-08 -1.95587e-08
          -1.30758e-08 -2.31541e-09 -2.46791e-09 -4.66145e-09 -1.73114e-08 -1.59326e-09 -8.51017e-09 -4.86939e-09 -1.19923e-09 -1.14017e-09 -1.33472e-08 -1.32676e-08
          -2.76089e-09 -2.62219e-08 -2.00333e-08 -2.00321e-08 -2.38586e-09 -2.6178e-09 -5.45891e-09 -1.99947e-08 -1.76077e-09 -7.0817e-09 -3.35509e-09 -9.85443e-10
          -9.41622e-10 -1.42937e-08 -8.23326e-09 -2.61573e-09 -1.96681e-08 -1.49028e-08 -3.33481e-08 -2.41316e-09 -2.4455e-09 -6.67844e-09 -2.12264e-08 -2.21917e-09
          -5.54255e-09 -2.67332e-09 -1.14429e-09 -9.20836e-10 -1.37328e-08 -5.35967e-09 -2.54744e-09 -1.58095e-08 -7.42614e-09 -4.36267e-08 -2.65226e-09 -3.03471e-09
          -8.18493e-09 -2.24556e-08 -2.4747e-09 -3.65561e-09 -1.81168e-09 -1.27188e-09 -1.04805e-09 -1.08473e-08 -4.72587e-09 -2.82723e-09 -1.51172e-08 -4.71323e-09
          -4.58038e-08 -3.37218e-09 -4.60361e-09 -9.17398e-09 -2.40656e-08 -3.51282e-09 -1.79483e-09 -9.7328e-10 -8.97078e-10 -9.6402e-10 -6.29492e-09 -4.33425e-09
          -3.04506e-09 -1.62262e-08 -4.56198e-09 -4.1021e-08 -5.58632e-09 -7.94959e-09 -1.27316e-08 -2.55236e-08 -4.43882e-09 -5.56056e-10 -4.13041e-10 -3.06595e-10
          -3.07319e-10 -1.74887e-09 -1.86593e-09 -1.52453e-09 -9.39779e-09 -4.71748e-09 -2.38643e-08 -1.02267e-08 -8.95201e-09 -1.01972e-08 -1.42037e-08 -2.38329e-09
        </DataArray>
        <DataArray type="Float32" Name="z[0]" NumberOfComponents="1" format="ascii">
          0.150578 0.150579 0.15058 0.150582 0.150582 0.150583 0.150584 0.150585 0.150585 0.150586 0.150587 0.150588
          0.150589 0.150591 0.150596 0.150581 0.150582 0.150583 0.150585 0.150586 0.150587 0.150587 0.150588 0.150588
          0.150589 0.15059 0.150591 0.150593 0.150595 0.150599 0.150584 0.150585 0.150587 0.150588 0.150589 0.15059
          0.150591 0.15192 0.150592 0.150593 0.150593 0.150595 0.150596 0.150598 0.150602 0.150588 0.150589 0.15059
          0.150591 0.163074 0.250777 0.34044 0.378392 0.150595 0.150596 0.150597 0.150598 0.150599 0.150601 0.150605
          0.150591 0.150592 0.218976 0.430776 0.441437 0.44836 0.426118 0.399229 0.150598 0.150599 0.1506 0.150601
          0.150602 0.150604 0.150609 0.150594 0.150595 0.218155 0.46267 0.475548 0.477136 0.461539 0.438017 0.153754