<?xml version="1.0"?>
<VTKFile type="UnstructuredGrid" version="0.1" byte_order="LittleEndian">
  <UnstructuredGrid>
    <Piece NumberOfCells="360" NumberOfPoints="800">
      <CellData Scalars="pressure[0]">
        <DataArray type="Float32" Name="pressure[0]" NumberOfComponents="1" format="ascii">
          2.08527e+07 2.08673e+07 2.15864e+07 2.23503e+07 2.26564e+07 2.30545e+07 2.3194e+07 2.32448e+07 2.33063e+07 2.33713e+07 2.35582e+07 2.38905e+07
          2.41499e+07 2.47884e+07 2.56081e+07 2.08965e+07 2.0911e+07 2.1726e+07 2.25613e+07 2.28557e+07 2.32569e+07 2.33581e+07 2.33966e+07 2.34584e+07
          2.35319e+07 2.38062e+07 2.41536e+07 2.43534e+07 2.50244e+07 2.57778e+07 2.09403e+07 2.09548e+07 2.17634e+07 2.27316e+07 2.30141e+07 2.33834e+07
          2.34987e+07 2.35532e+07 2.36304e+07 2.37343e+07 2.41224e+07 2.4536e+07 2.4707e+07 2.53084e+07 2.59964e+07 2.09845e+07 2.09996e+07 2.16357e+07
          2.28797e+07 2.31834e+07 2.35688e+07 2.36863e+07 2.37416e+07 2.38706e+07 2.40407e+07 2.45561e+07 2.49883e+07 2.51465e+07 2.56293e+07 2.62692e+07
          2.10687e+07 2.10948e+07 1.97372e+07 2.30282e+07 2.357e+07 2.41663e+07 2.42473e+07 2.42877e+07 2.43926e+07 2.46641e+07 2.50875e+07 2.54398e+07
          2.55743e+07 2.59809e+07 2.6534e+07 2.12583e+07 2.13011e+07 2.14628e+07 2.37282e+07 2.42365e+07 2.47071e+07 2.47631e+07 2.48148e+07 2.4949e+07
          2.54796e+07 2.56646e+07 2.58037e+07 2.59526e+07 2.63347e+07 2.68293e+07 2.14988e+07 2.15478e+07 2.22097e+07 2.44206e+07 2.48741e+07 2.52621e+07
          2.53267e+07 2.53973e+07 2.54872e+07 2.57807e+07 2.60222e+07 2.60985e+07 2.62508e+07 2.67108e+07 2.72389e+07 2.18407e+07 2.18954e+07 2.31118e+07
          2.46229e+07 2.53416e+07 2.57389e+07 2.57946e+07 2.58451e+07 2.59345e+07 2.61391e+07 2.62904e+07 2.63518e+07 2.65696e+07 2.70923e+07 2.78028e+07
          2.23294e+07 2.23933e+07 2.35622e+07 2.46896e+07 2.58589e+07 2.61855e+07 2.62838e+07 2.63764e+07 2.64164e+07 2.65024e+07 2.65641e+07 2.65909e+07
          2.68241e+07 2.75178e+07 2.83619e+07 2.29157e+07 2.30146e+07 2.37444e+07 2.44896e+07 2.63497e+07 2.65854e+07 2.68028e+07 2.7001e+07 2.69073e+07
          2.68812e+07 2.68894e+07 2.69153e+07 2.71711e+07 2.79529e+07 2.8693e+07 2.37848e+07 2.38774e+07 2.4391e+07 2.49117e+07 2.67081e+07 2.6885e+07
          2.7232e+07 2.75292e+07 2.73679e+07 2.72787e+07 2.72276e+07 2.72419e+07 2.74665e+07 2.83448e+07 2.89537e+07 2.45948e+07 2.49906e+07 2.51966e+07
          2.55862e+07 2.70696e+07 2.71801e+07 2.76723e+07 2.80708e+07 2.81138e+07 2.77099e+07 2.76675e+07 2.78355e+07 2.83574e+07 2.88461e+07 2.97147e+07
          2.58865e+07 2.59412e+07 2.5952e+07 2.62967e+07 2.75636e+07 2.76751e+07 2.8204e+07 2.86671e+07 2.87631e+07 2.87459e+07 2.87009e+07 2.89289e+07
          2.94393e+07 3.02434e+07 3.03894e+07 2.68397e+07 2.68768e+07 2.66986e+07 2.72678e+07 2.83716e+07 2.84737e+07 2.89137e+07 2.92614e+07 2.93302e+07
          2.94101e+07 2.94791e+07 2.99369e+07 3.05558e+07 3.10383e+07 3.08091e+07 2.75826e+07 2.75849e+07 2.76172e+07 2.87063e+07 2.91625e+07 2.92236e+07
          2.95175e+07 2.97284e+07 2.9779e+07 2.98575e+07 3.00089e+07 3.07281e+07 3.12873e+07 3.14569e+07 3.13065e+07 2.8245e+07 2.82693e+07 2.83652e+07
          2.94052e+07 2.96346e+07 2.96889e+07 2.98971e+07 3.00345e+07 3.00831e+07 3.01553e+07 3.04366e+07 3.11261e+07 3.16394e+07 3.1935e+07 3.17748e+07
          2.8928e+07 2.89791e+07 2.93621e+07 2.99035e+07 3.00212e+07 3.00599e+07 3.01692e+07 3.02654e+07 3.03128e+07 3.03751e+07 3.07467e+07 3.1568e+07
          3.2122e+07 3.24113e+07 3.22031e+07 2.948e+07 2.95397e+07 2.9901e+07 3.0175e+07 3.0295e+07 3.03393e+07 3.04251e+07 3.04973e+07 3.05467e+07
          3.06038e+07 3.10604e+07 3.19291e+07 3.24957e+07 3.27331e+07 3.26291e+07 2.97875e+07 2.98534e+07 3.00674e+07 3.03757e+07 3.05354e+07 3.0583e+07
          3.06588e+07 3.0723e+07 3.07686e+07 3.08236e+07 3.13258e+07 3.22863e+07 3.28669e+07 3.3046e+07 3.32129e+07 3.00347e+07 3.00931e+07 3.0285e+07
          3.05912e+07 3.07484e+07 3.07964e+07 3.08703e+07 3.09314e+07 3.09773e+07 3.10383e+07 3.15363e+07 3.25952e+07 3.32331e+07 3.3375e+07 3.37682e+07
          3.02434e+07 3.03093e+07 3.04622e+07 3.07453e+07 3.09399e+07 3.09926e+07 3.10722e+07 3.11368e+07 3.11978e+07 3.12745e+07 3.19779e+07 3.31111e+07
          3.3574e+07 3.37239e+07 3.42029e+07 3.04435e+07 3.05119e+07 3.06483e+07 3.09246e+07 3.11228e+07 3.11805e+07 3.12727e+07 3.13468e+07 3.14255e+07
          3.15136e+07 3.24628e+07 3.36406e+07 3.39271e+07 3.41083e+07 3.46265e+07 3.06265e+07 3.06891e+07 3.08527e+07 3.11435e+07 3.13057e+07 3.13718e+07
          3.14802e+07 3.15661e+07 3.16674e+07 3.17769e+07 3.28763e+07 3.40806e+07 3.43268e+07 3.45291e+07 3.49337e+07 3.07943e+07 3.0854e+07 3.09978e+07
          3.1289e+07 3.1496e+07 3.15637e+07 3.16858e+07 3.17858e+07 3.19092e+07 3.20559e+07 3.33315e+07 3.4465e+07 3.47381e+07 3.49219e+07 3.52068e+07
        </DataArray>
        <DataArray type="Float32" Name="pressure[1]" NumberOfComponents="1" format="ascii">
          2.08527e+07 2.08673e+07 2.15864e+07 2.23503e+07 2.26564e+07 2.30545e+07 2.3194e+07 2.32448e+07 2.33063e+07 2.33713e+07 2.35582e+07 2.38905e+07
          2.41499e+07 2.47884e+07 2.56081e+07 2.08965e+07 2.0911e+07 2.1726e+07 2.25613e+07 2.28557e+07 2.32569e+07 2.33581e+07 2.33966e+07 2.34584e+07
          2.35319e+07 2.38062e+07 2.41536e+07 2.43534e+07 2.50244e+07 2.57778e+07 2.09403e+07 2.09548e+07 2.17634e+07 2.27316e+07 2.30141e+07 2.33834e+07
          2.34987e+07 2.35532e+07 2.36304e+07 2.37343e+07 2.41224e+07 2.4536e+07 2.4707e+07 2.53084e+07 2.59964e+07 2.09845e+07 2.09996e+07 2.16357e+07
          2.28797e+07 2.31834e+07 2.35688e+07 2.36863e+07 2.37416e+07 2.38706e+07 2.40407e+07 2.45561e+07 2.49883e+07 2.51465e+07 2.56293e+07 2.62692e+07
          2.10687e+07 2.10948e+07 1.97372e+07 2.30282e+07 2.357e+07 2.41663e+07 2.42473e+07 2.42877e+07 2.43926e+07 2.46641e+07 2.50875e+07 2.54398e+07
          2.55743e+07 2.59809e+07 2.6534e+07 2.12583e+07 2.13011e+07 2.14628e+07 2.37282e+07 2.42365e+07 2.47071e+07 2.47631e+07 2.48148e+07 2.4949e+07
          2.54796e+07 2.56646e+07 2.58037e+07 2.59526e+07 2.63347e+07 2.68293e+07 2.14988e+07 2.15478e+07 2.22097e+07 2.44206e+07 2.48741e+07 2.52621e+07
          2.53267e+07 2.53973e+07 2.54872e+07 2.57807e+07 2.60222e+07 2.60985e+07 2.62508e+07 2.67108e+07 2.72389e+07 2.18407e+07 2.18954e+07 2.31118e+07
          2.46229e+07 2.53416e+07 2.57389e+07 2.57946e+07 2.58451e+07 2.59345e+07 2.61391e+07 2.62904e+07 2.63518e+07 2.65696e+07 2.70923e+07 2.78028e+07
          2.23294e+07 2.23933e+07 2.35622e+07 2.46896e+07 2.58589e+07 2.61855e+07 2.62838e+07 2.63764e+07 2.64164e+07 2.65024e+07 2.65641e+07 2.65909e+07
          2.68241e+07 2.75178e+07 2.83619e+07 2.29157e+07 2.30146e+07 2.37444e+07 2.44896e+07 2.63497e+07 2.65854e+07 2.68028e+07 2.7001e+07 2.69073e+07
          2.68812e+07 2.68894e+07 2.69153e+07 2.71711e+07 2.79529e+07 2.8693e+07 2.37848e+07 2.38774e+07 2.4391e+07 2.49117e+07 2.67081e+07 2.6885e+07
          2.7232e+07 2.75292e+07 2.73679e+07 2.72787e+07 2.72276e+07 2.72419e+07 2.74665e+07 2.83448e+07 2.89537e+07 2.45948e+07 2.49906e+07 2.51966e+07
          2.55862e+07 2.70696e+07 2.71801e+07 2.76723e+07 2.80708e+07 2.81138e+07 2.77099e+07 2.76675e+07 2.78355e+07 2.83574e+07 2.88461e+07 2.97147e+07
          2.58865e+07 2.59412e+07 2.5952e+07 2.62967e+07 2.75636e+07 2.76751e+07 2.8204e+07 2.86671e+07 2.87631e+07 2.87459e+07 2.87009e+07 2.89289e+07
          2.94393e+07 3.02434e+07 3.03894e+07 2.68397e+07 2.68768e+07 2.66986e+07 2.72678e+07 2.83716e+07 2.84737e+07 2.89137e+07 2.92614e+07 2.93302e+07
          2.94101e+07 2.94791e+07 2.99369e+07 3.05558e+07 3.10383e+07 3.08091e+07 2.75826e+07 2.75849e+07 2.76172e+07 2.87063e+07 2.91625e+07 2.92236e+07
          2.95175e+07 2.97284e+07 2.9779e+07 2.98575e+07 3.00089e+07 3.07281e+07 3.12873e+07 3.14569e+07 3.13065e+07 2.8245e+07 2.82693e+07 2.83652e+07
          2.94052e+07 2.96346e+07 2.96889e+07 2.98971e+07 3.00345e+07 3.00831e+07 3.01553e+07 3.04366e+07 3.11261e+07 3.16394e+07 3.1935e+07 3.17748e+07
          2.8928e+07 2.89791e+07 2.93621e+07 2.99035e+07 3.00212e+07 3.00599e+07 3.01692e+07 3.02654e+07 3.03128e+07 3.03751e+07 3.07467e+07 3.1568e+07
          3.2122e+07 3.24113e+07 3.22031e+07 2.948e+07 2.95397e+07 2.9901e+07 3.0175e+07 3.0295e+07 3.03393e+07 3.04251e+07 3.04973e+07 3.05467e+07
          3.06038e+07 3.10604e+07 3.19291e+07 3.24957e+07 3.27331e+07 3.26291e+07 2.97875e+07 2.98534e+07 3.00674e+07 3.03757e+07 3.05354e+07 3.0583e+07
          3.06588e+07 3.0723e+07 3.07686e+07 3.08236e+07 3.13258e+07 3.22863e+07 3.28669e+07 3.3046e+07 3.32129e+07 3.00347e+07 3.00931e+07 3.0285e+07
          3.05912e+07 3.07484e+07 3.07964e+07 3.08703e+07 3.09314e+07 3.09773e+07 3.10383e+07 3.15363e+07 3.25952e+07 3.32331e+07 3.3375e+07 3.37682e+07
          3.02434e+07 3.03093e+07 3.04622e+07 3.07453e+07 3.09399e+07 3.09926e+07 3.10722e+07 3.11368e+07 3.11978e+07 3.12745e+07 3.19779e+07 3.31111e+07
          3.3574e+07 3.37239e+07 3.42029e+07 3.04435e+07 3.05119e+07 3.06483e+07 3.09246e+07 3.11228e+07 3.11805e+07 3.12727e+07 3.13468e+07 3.14255e+07
          3.15136e+07 3.24628e+07 3.36406e+07 3.39271e+07 3.41083e+07 3.46265e+07 3.06265e+07 3.06891e+07 3.08527e+07 3.11435e+07 3.13057e+07 3.13718e+07
          3.14802e+07 3.15661e+07 3.16674e+07 3.17769e+07 3.28763e+07 3.40806e+07 3.43268e+07 3.45291e+07 3.49337e+07 3.07943e+07 3.0854e+07 3.09978e+07
          3.1289e+07 3.1496e+07 3.15637e+07 3.16858e+07 3.17858e+07 3.19092e+07 3.20559e+07 3.33315e+07 3.4465e+07 3.47381e+07 3.49219e+07 3.52068e+07
        </DataArray>
        <DataArray type="Float32" Name="pressure[2]" NumberOfComponents="1" format="ascii">
          2.08527e+07 2.08673e+07 2.15864e+07 2.23503e+07 2.26564e+07 2.30545e+07 2.3194e+07 2.32448e+07 2.33063e+07 2.33713e+07 2.35582e+07 2.38905e+07
          2.41499e+07 2.47884e+07 2.56081e+07 2.08965e+07 2.0911e+07 2.1726e+07 2.25613e+07 2.28557e+07 2.32569e+07 2.33581e+07 2.33966e+07 2.34584e+07
          2.35319e+07 2.38062e+07 2.41536e+07 2.43534e+07 2.50244e+07 2.57778e+07 2.09403e+07 2.09548e+07 2.17634e+07 2.27316e+07 2.30141e+07 2.33834e+07
          2.34987e+07 2.35532e+07 2.36304e+07 2.37343e+07 2.41224e+07 2.4536e+07 2.4707e+07 2.53084e+07 2.59964e+07 2.09845e+07 2.09996e+07 2.16357e+07
          2.28797e+07 2.31834e+07 2.35688e+07 2.36863e+07 2.37416e+07 2.38706e+07 2.40407e+07 2.45561e+07 2.49883e+07 2.51465e+07 2.56293e+07 2.62692e+07
          2.10687e+07 2.10948e+07 1.97372e+07 2.30282e+07 2.357e+07 2.41663e+07 2.42473e+07 2.42877e+07 2.43926e+07 2.46641e+07 2.50875e+07 2.54398e+07
          2.55743e+07 2.59809e+07 2.6534e+07 2.12583e+07 2.13011e+07 2.14628e+07 2.37282e+07 2.42365e+07 2.47071e+07 2.47631e+07 2.48148e+07 2.4949e+07
          2.54796e+07 2.56646e+07 2.58037e+07 2.59526e+07 2.63347e+07 2.68293e+07 2.14988e+07 2.15478e+07 2.22097e+07 2.44206e+07 2.48741e+07 2.52621e+07
          2.53267e+07 2.53973e+07 2.54872e+07 2.57807e+07 2.60222e+07 2.60985e+07 2.62508e+07 2.67108e+07 2.72389e+07 2.18407e+07 2.18954e+07 2.31118e+07
          2.46229e+07 2.53416e+07 2.57389e+07 2.57946e+07 2.58451e+07 2.59345e+07 2.61391e+07 2.62904e+07 2.63518e+07 2.65696e+07 2.70923e+07 2.78028e+07
          2.23294e+07 2.23933e+07 2.35622e+07 2.46896e+07 2.58589e+07 2.61855e+07 2.62838e+07 2.63764e+07 2.64164e+07 2.65024e+07 2.65641e+07 2.65909e+07
          2.68241e+07 2.75178e+07 2.83619e+07 2.29157e+07 2.30146e+07 2.37444e+07 2.44896e+07 2.63497e+07 2.65854e+07 2.68028e+07 2.7001e+07 2.69073e+07
          2.68812e+07 2.68894e+07 2.69153e+07 2.71711e+07 2.79529e+07 2.8693e+07 2.37848e+07 2.38774e+07 2.4391e+07 2.49117e+07 2.67081e+07 2.6885e+07
          2.7232e+07 2.75292e+07 2.73679e+07 2.72787e+07 2.72276e+07 2.72419e+07 2.74665e+07 2.83448e+07 2.89537e+07 2.45948e+07 2.49906e+07 2.51966e+07
          2.55862e+07 2.70696e+07 2.71801e+07 2.76723e+07 2.80708e+07 2.81138e+07 2.77099e+07 2.76675e+07 2.78355e+07 2.83574e+07 2.88461e+07 2.97147e+07
          2.58865e+07 2.59412e+07 2.5952e+07 2.62967e+07 2.75636e+07 2.76751e+07 2.8204e+07 2.86671e+07 2.87631e+07 2.87459e+07 2.87009e+07 2.89289e+07
          2.94393e+07 3.02434e+07 3.03894e+07 2.68397e+07 2.68768e+07 2.66986e+07 2.72678e+07 2.83716e+07 2.84737e+07 2.89137e+07 2.92614e+07 2.93302e+07
          2.94101e+07 2.94791e+07 2.99369e+07 3.05558e+07 3.10383e+07 3.08091e+07 2.75826e+07 2.75849e+07 2.76172e+07 2.87063e+07 2.91625e+07 2.92236e+07
          2.95175e+07 2.97284e+07 2.9779e+07 2.98575e+07 3.00089e+07 3.07281e+07 3.12873e+07 3.14569e+07 3.13065e+07 2.8245e+07 2.82693e+07 2.83652e+07
          2.94052e+07 2.96346e+07 2.96889e+07 2.98971e+07 3.00345e+07 3.00831e+07 3.01553e+07 3.04366e+07 3.11261e+07 3.16394e+07 3.1935e+07 3.17748e+07
          2.8928e+07 2.89791e+07 2.93621e+07 2.99035e+07 3.00212e+07 3.00599e+07 3.01692e+07 3.02654e+07 3.03128e+07 3.03751e+07 3.07467e+07 3.1568e+07
          3.2122e+07 3.24113e+07 3.22031e+07 2.948e+07 2.95397e+07 2.9901e+07 3.0175e+07 3.0295e+07 3.03393e+07 3.04251e+07 3.04973e+07 3.05467e+07
          3.06038e+07 3.10604e+07 3.19291e+07 3.24957e+07 3.27331e+07 3.26291e+07 2.97875e+07 2.98534e+07 3.00674e+07 3.03757e+07 3.05354e+07 3.0583e+07
          3.06588e+07 3.0723e+07 3.07686e+07 3.08236e+07 3.13258e+07 3.22863e+07 3.28669e+07 3.3046e+07 3.32129e+07 3.00347e+07 3.00931e+07 3.0285e+07
          3.05912e+07 3.07484e+07 3.07964e+07 3.08703e+07 3.09314e+07 3.09773e+07 3.10383e+07 3.15363e+07 3.25952e+07 3.32331e+07 3.3375e+07 3.37682e+07
          3.02434e+07 3.03093e+07 3.04622e+07 3.07453e+07 3.09399e+07 3.09926e+07 3.10722e+07 3.11368e+07 3.11978e+07 3.12745e+07 3.19779e+07 3.31111e+07
          3.3574e+07 3.37239e+07 3.42029e+07 3.04435e+07 3.05119e+07 3.06483e+07 3.09246e+07 3.11228e+07 3.11805e+07 3.12727e+07 3.13468e+07 3.14255e+07
          3.15136e+07 3.24628e+07 3.36406e+07 3.39271e+07 3.41083e+07 3.46265e+07 3.06265e+07 3.06891e+07 3.08527e+07 3.11435e+07 3.13057e+07 3.13718e+07
          3.14802e+07 3.15661e+07 3.16674e+07 3.17769e+07 3.28763e+07 3.40806e+07 3.43268e+07 3.45291e+07 3.49337e+07 3.07943e+07 3.0854e+07 3.09978e+07
          3.1289e+07 3.1496e+07 3.15637e+07 3.16858e+07 3.17858e+07 3.19092e+07 3.20559e+07 3.33315e+07 3.4465e+07 3.47381e+07 3.49219e+07 3.52068e+07
        </DataArray>
        <DataArray type="Float32" Name="velocity[0]" NumberOfComponents="1" format="ascii">
          -1.46497e-10 3.82446e-08 -9.52311e-12 -1.94672e-08 -5.84991e-10 -2.21015e-09 -3.7843e-09 -1.53147e-09 -2.94843e-09 -3.32901e-09 -2.34593e-09 -3.64842e-09
          -2.84049e-09 -1.05152e-09 -3.01738e-09 -1.01457e-09 1.10026e-07 5.42263e-10 -6.62671e-08 -7.64435e-10 -1.53477e-09 -3.66746e-09 -3.6716e-09 -8.91268e-09
          -9.74131e-09 -5.17274e-09 -1.52992e-08 -9.7389e-09 -2.71054e-09 -7.89176e-09 -7.4248e-09 1.6066e-07 1.45957e-09 -7.95014e-08 -7.56328e-10 -2.34309e-09
          -6.61212e-09 -8.4388e-09 -1.4313e-08 -1.60474e-08 -6.75622e-09 -3.78818e-08 -1.30429e-08 -4.76855e-09 -1.15502e-08 -1.65821e-08 1.89436e-07 7.20072e-09
          -3.20111e-08 -2.48379e-09 -1.62037e-08 -3.32986e-08 -3.25639e-08 -2.28502e-08 -2.46145e-08 -9.43919e-09 -6.75313e-08 -9.03878e-09 -6.39837e-09 -1.53545e-08
          -7.83638e-08 -1.68053e-10 1.81818e-09 -6.60145e-08 -7.93837e-09 -4.33051e-08 -6.39156e-08 -6.15352e-08 -2.261e-08 -2.47439e-08 -1.25475e-08 -1.06362e-07
          -4.43805e-09 -5.66949e-09 -1.85452e-08 -1.47729e-07 -1.85278e-07 -5.98355e-09 -9.30522e-08 -1.38134e-08 -9.80233e-08 -6.71926e-08 -9.20375e-08 -1.3845e-08
          -1.07206e-08 -1.29799e-08 -1.35482e-07 -2.47107e-09 -4.44308e-09 -2.0574e-08 -1.53843e-07 -1.66319e-07 -3.81368e-09 -2.85559e-08 -1.18559e-08 -1.56127e-07
          -5.07776e-08 -1.53198e-07 -9.11792e-09 -1.96646e-09 -1.32237e-08 -1.45456e-07 -1.91247e-09 -4.21955e-09 -2.19267e-08 -1.41579e-07 -1.54772e-07 -3.63974e-09
          -9.05504e-10 -7.58977e-09 -1.86653e-07 -2.91605e-08 -2.293e-07 -5.82669e-09 -2.04371e-09 -1.56508e-08 -1.49236e-07 -1.46872e-09 -4.20714e-09 -2.34887e-08
          -1.26672e-07 -1.37758e-07 -1.58744e-09 3.57768e-09 -6.7173e-09 -2.05198e-07 -1.12254e-08 -2.97342e-07 -4.23556e-09 -2.22288e-09 -2.53532e-08 -1.35412e-07
          -1.31518e-09 -3.77004e-09 -2.5599e-08 -1.0165e-07 -1.21321e-07 -8.06635e-09 1.04886e-09 -5.37334e-09 -2.12224e-07 -3.85139e-09 -3.64462e-07 -3.87004e-09
          -2.83695e-09 -4.35107e-08 -1.0546e-07 -1.84764e-09 -3.40547e-09 -2.76975e-08 -7.84404e-08 -8.49222e-08 -2.79727e-08 -2.47239e-09 -5.00571e-09 -2.13269e-07
          -1.31419e-09 -4.28172e-07 -4.53987e-09 -4.41243e-09 -6.52173e-08 -6.22719e-08 -3.96149e-09 -4.74967e-09 -2.93985e-08 -5.40928e-08 -5.46905e-08 -4.93713e-08
          -2.53674e-09 -7.62799e-09 -2.17559e-07 -1.10146e-09 -4.70053e-07 -1.45421e-08 -6.10941e-09 -5.86025e-08 -3.36395e-08 -1.11992e-08 -7.78756e-09 -3.05034e-08
          -3.52717e-08 -6.26927e-08 -4.67747e-08 -3.36009e-09 -1.23484e-08 -2.06716e-07 -1.58147e-09 -4.80239e-07 -4.34038e-08 -7.03299e-09 -3.0925e-08 -2.01482e-08
          -2.4372e-08 -1.31488e-08 -3.07958e-08 -3.62624e-08 -7.57388e-08 -2.74998e-08 -3.98367e-09 -1.83853e-08 -1.91948e-07 -1.61638e-09 -4.51272e-07 -7.56159e-08
          -1.1838e-08 -1.72558e-08 -6.1994e-09 -3.00864e-08 -2.39393e-08 -2.92187e-08 -4.42486e-08 -7.0884e-08 -1.53529e-08 -3.14262e-09 -2.45361e-08 -1.89884e-07
          -1.14304e-09 -4.07017e-07 -9.12251e-08 -2.00731e-08 -1.18637e-08 -3.28838e-09 -2.83013e-08 -3.75624e-08 -2.58447e-08 -5.4552e-08 -5.63108e-08 -7.54497e-09
          -3.10616e-09 -3.03328e-08 -1.87194e-07 -1.40847e-09 -3.45162e-07 -9.52319e-08 -2.88076e-08 -7.42451e-09 -4.50487e-09 -3.22002e-08 -5.53662e-08 -2.15786e-08
          -5.81486e-08 -4.44471e-08 -3.5488e-09 -4.09793e-09 -4.29317e-08 -1.6364e-07 -2.72925e-09 -2.73065e-07 -9.58811e-08 -4.50501e-08 -3.18674e-09 -4.47068e-09
          -2.62831e-08 -8.21634e-08 -1.70281e-08 -5.67855e-08 -3.51869e-08 -1.51581e-09 -2.75581e-09 -6.34216e-08 -1.17704e-07 -4.19433e-09 -2.08579e-07 -1.03388e-07
          -6.79114e-08 -2.27847e-09 -3.03181e-09 -1.70823e-08 -1.07346e-07 -1.32206e-08 -5.09559e-08 -2.50366e-08 -1.04083e-09 -1.11196e-09 -7.87852e-08 -7.488e-08
          -4.41938e-09 -1.48834e-07 -1.03303e-07 -1.06666e-07 -1.3307e-09 -2.50186e-09 -2.23338e-08 -1.22636e-07 -1.15313e-08 -4.21575e-08 -1.68396e-08 -1.27887e-09
          -5.31098e-10 -8.4266e-08 -4.27329e-08 -3.69863e-09 -1.08934e-07 -6.68289e-08 -1.84961e-07 -2.32233e-09 -3.55437e-09 -3.32218e-08 -1.29984e-07 -1.23746e-08
          -3.21788e-08 -1.13492e-08 -1.19269e-09 -1.27808e-10 -7.85904e-08 -2.24388e-08 -3.18128e-09 -8.57214e-08 -2.79762e-08 -2.56744e-07 -3.64116e-09 -6.54556e-09
          -4.04431e-08 -1.35778e-07 -1.41861e-08 -2.02241e-08 -5.78234e-09 -1.91382e-09 -7.32093e-10 -5.8243e-08 -1.53239e-08 -3.11824e-09 -8.09988e-08 -1.51898e-08
          -2.71527e-07 -3.32501e-09 -1.25886e-08 -4.42648e-08 -1.41648e-07 -1.75785e-08 -9.43273e-09 -2.30812e-09 -8.62031e-10 -4.83156e-10 -2.91543e-08 -1.14758e-08
          -2.56395e-09 -8.55859e-08 -1.22512e-08 -2.34016e-07 -4.61518e-09 -2.17115e-08 -5.79623e-08 -1.47498e-07 -2.29228e-08 -2.49737e-09 -5.19077e-10 1.93741e-10
          7.43621e-11 -6.90323e-09 -4.38661e-09 -9.39555e-10 -4.36456e-08 -5.70833e-09 -1.01193e-07 -3.04454e-09 -1.31711e-08 -3.45862e-08 -7.57838e-08 -1.28649e-08
        </DataArray>
        <DataArray type="Float32" Name="velocity[1]" NumberOfComponents="1" format="ascii">
          2.27673e-26 5.94105e-24 -2.60078e-25 -3.02543e-24 9.09145e-26 0 5.88125e-25 2.56447e-26 -3.80264e-25 5.42699e-24 -2.94454e-24 -1.97034e-25
          2.19728e-24 -8.06152e-25 4.70727e-25 1.12141e-25 5.22147e-24 -2.88783e-25 -4.24784e-24 3.25285e-25 7.40117e-24 2.01535e-24 7.49968e-25 -7.36813e-24
          6.35362e-25 0 1.84127e-25 -1.89973e-25 -1.39742e-27 2.88599e-25 8.84085e-25 -7.63545e-24 -2.03092e-24 2.19108e-24 7.67943e-25 0
          1.52406e-24 8.48862e-25 -3.70583e-25 0 6.80423e-24 -1.17353e-23 0 1.11259e-24 -2.76334e-25 9.60742e-25 1.23085e-23 -1.98339e-24
          3.25841e-24 7.26328e-25 9.30823e-24 -2.15541e-23 2.77406e-23 -1.9034e-24 4.80787e-26 3.60266e-24 -4.38652e-24 2.65643e-24 -1.2376e-24 9.31963e-25
          4.14877e-26 -6.25631e-23 3.04888e-24 4.05792e-24 4.77932e-25 -2.0422e-24 -2.88593e-25 1.19384e-25 1.69059e-24 -4.51373e-24 3.73708e-24 -7.2753e-24
          1.78012e-26 1.44684e-25 -1.53336e-24 1.04881e-26 5.02653e-24 -2.79518e-25 3.94486e-24 -1.92344e-25 -5.39848e-24 0 2.2094e-25 4.25174e-24
          -3.87519e-24 1.53944e-25 8.9105e-24 -1.14134e-24 6.64365e-25 1.53716e-24 -7.44784e-25 4.8058e-25 0 3.25118e-24 -7.39657e-25 -1.03245e-23
          2.17917e-25 1.0798e-25 -1.25793e-24 -5.00315e-26 6.20261e-26 4.52136e-26 -1.67691e-26 4.21087e-27 -1.66408e-24 -4.84935e-26 1.1254e-23 1.59436e-24
          1.42153e-24 1.46135e-25 1.19225e-23 1.15529e-26 8.39068e-27 3.14581e-25 2.17864e-26 -1.92964e-24 -1.07998e-23 2.00669e-26 -2.98595e-25 1.90683e-24
          -1.2387e-24 -7.42907e-24 2.17669e-25 -3.21387e-24 -5.16066e-26 2.37458e-24 0 0 3.47666e-25 -2.04817e-26 1.46355e-25 4.03685e-24
          3.44713e-26 5.74244e-26 1.47374e-27 -9.25403e-24 1.4471e-24 1.52174e-24 -6.56073e-25 -2.22923e-24 2.75194e-24 -5.16422e-24 5.51882e-24 -2.02583e-25
          -5.50163e-26 2.1945e-25 3.49924e-24 -7.80318e-25 0 -2.07156e-24 4.89437e-24 6.8789e-26 1.91859e-24 -1.90917e-25 2.14073e-24 -2.3917e-27
          -3.36848e-24 8.76621e-24 4.64863e-26 1.61787e-25 -6.06317e-25 5.38737e-24 1.60248e-24 -2.03342e-25 1.01671e-25 -2.75971e-24 7.58714e-25 -1.40428e-24
          -1.26148e-26 -1.4159e-24 -1.70558e-23 2.8606e-26 2.12867e-24 -3.30529e-24 -7.98906e-26 1.38837e-24 1.99802e-24 -9.68048e-25 8.69497e-25 -6.77175e-26
          2.72256e-24 4.09394e-24 0 -1.21176e-25 4.30293e-25 1.98583e-24 4.77713e-26 -5.41419e-25 -2.99009e-24 2.9317e-27 -1.71588e-24 -7.04356e-25
          1.22428e-24 -7.33179e-25 -9.08961e-28 1.91752e-25 -2.12839e-27 7.66559e-25 4.63404e-26 2.28434e-27 1.41981e-23 -3.89634e-26 -3.95761e-24 5.54919e-24
          -1.02474e-24 1.71157e-24 1.89576e-24 -3.81218e-24 5.30896e-28 -2.15889e-24 -2.90574e-24 -4.90152e-24 2.95431e-27 2.97423e-25 4.46655e-25 -3.89188e-28
          -3.29943e-26 -7.16213e-24 1.88557e-24 0 0 2.59105e-25 3.24841e-24 -4.08436e-25 4.01729e-24 0 1.03969e-24 0
          -2.91757e-25 4.55866e-25 -4.66544e-28 7.42451e-26 -6.69282e-24 7.34288e-28 5.60234e-28 5.12522e-28 3.47238e-24 4.6842e-28 -1.02986e-24 -1.85638e-24
          7.27025e-29 8.04403e-25 6.93408e-28 -5.44131e-26 1.50452e-24 -8.55096e-24 0 -8.82411e-24 0 -3.01713e-28 2.57356e-24 -3.1921e-24
          -1.46844e-24 -1.81335e-29 1.14981e-24 0 3.05178e-24 0 3.45339e-25 1.45178e-24 4.14458e-24 9.56068e-26 -5.51043e-24 -4.73419e-24
          -1.79951e-24 1.52106e-25 4.45613e-26 2.14136e-28 -1.49935e-24 -9.04826e-25 3.61603e-24 -1.86148e-24 2.01541e-24 -1.63575e-24 7.07728e-25 7.2035e-24
          -6.0636e-26 -3.77453e-24 8.67256e-24 4.59737e-24 -2.76474e-24 6.01624e-26 7.77392e-25 -1.72812e-28 8.87279e-25 4.57724e-28 -3.28944e-24 7.14224e-25
          -1.49411e-24 2.88741e-25 -2.22823e-24 -1.01683e-25 -4.85157e-24 -4.38106e-24 7.94555e-24 2.25315e-25 2.96522e-24 9.14979e-25 -2.97058e-25 -7.38672e-25
          -8.70505e-25 5.22584e-25 0 -3.34601e-26 -1.02672e-24 3.72179e-24 -6.5422e-24 6.54453e-24 -4.77776e-24 4.85995e-28 0 0
          2.07375e-25 -4.05042e-28 1.16879e-24 -9.87396e-25 -1.04023e-24 9.57868e-25 -1.60907e-24 -6.82799e-25 -1.10088e-24 1.83307e-26 4.4768e-25 -3.12285e-24
          1.12625e-23 -2.15727e-25 -5.41572e-24 3.86395e-25 7.89184e-25 1.20528e-28 -6.89187e-25 -5.14661e-28 -6.34021e-28 9.6347e-26 -2.38594e-24 4.20855e-25
          -1.06433e-25 8.53165e-24 -3.54431e-24 0 -2.29063e-25 -7.19474e-25 5.50631e-24 -6.33126e-25 0 -3.88643e-25 -5.8555e-28 -3.17021e-25
          5.36823e-25 -1.0721e-24 -1.80405e-24 -2.93832e-25 -2.28636e-24 8.87142e-25 -2.45737e-23 0 2.46013e-23 -1.80739e-23 1.49564e-23 3.74974e-25
        </DataArray>
        <DataArray type="Float32" Name="velocity[2]" NumberOfComponents="1" format="ascii">
          -7.02379e-11 4.74191e-09 -4.06084e-09 -6.81047e-09 -2.75184e-09 -3.1767e-09 -3.47582e-09 -3.05395e-09 -3.26931e-09 -3.25832e-09 -3.00008e-09 -3.05003e-09
          -2.65367e-09 -2.20824e-09 -1.53402e-09 -1.87001e-10 1.77052e-08 -3.49003e-09 -1.42597e-08 -1.64358e-09 -2.21367e-09 -3.05373e-09 -3.25908e-09 -4.16718e-09
          -4.23566e-09 -3.46333e-09 -4.91472e-09 -3.33617e-09 -1.80805e-09 -2.00675e-09 -9.82794e-10 2.809e-08 -1.11265e-09 -1.64747e-08 -3.53771e-09 -3.88674e-09
          -4.50517e-09 -4.64754e-09 -5.60541e-09 -5.85471e-09 -4.18736e-09 -8.89163e-09 -3.83721e-09 -2.27381e-09 -2.63326e-09 -2.74253e-09 3.31349e-08 -2.56835e-10
          -9.61233e-09 -6.24623e-09 -8.35441e-09 -1.05596e-08 -9.4597e-09 -6.99936e-09 -6.92475e-09 -4.10475e-09 -1.35993e-08 -2.75679e-09 -2.48271e-09 -3.37062e-09
          -9.94841e-09 4.90506e-09 7.50262e-10 -1.42167e-08 -5.14348e-09 -1.05401e-08 -1.32348e-08 -1.23576e-08 -5.79225e-09 -7.14282e-09 -5.35247e-09 -2.04162e-08
          -1.15815e-09 -1.62813e-09 -3.66192e-09 -2.53172e-08 -3.20203e-08 -1.54994e-09 -1.93298e-08 -7.42575e-09 -2.05553e-08 -1.36742e-08 -1.77675e-08 -4.33605e-09
          -3.67962e-09 -3.14832e-09 -2.45183e-08 -8.18498e-10 -1.27785e-09 -3.90418e-09 -2.74471e-08 -3.00906e-08 -1.54001e-09 -7.17054e-09 -5.76703e-09 -3.05698e-08
          -1.13776e-08 -2.86737e-08 -2.39738e-09 -1.31593e-09 -3.25211e-09 -2.625e-08 -6.86162e-10 -1.0889e-09 -4.03321e-09 -2.54326e-08 -2.86236e-08 -2.39547e-09
          -2.21965e-09 -3.76e-09 -3.49992e-08 -7.15321e-09 -4.18148e-08 -1.49954e-09 -8.98803e-10 -3.25061e-09 -2.68165e-08 -8.65973e-10 -1.41305e-09 -4.48851e-09
          -2.28117e-08 -2.56137e-08 -2.09615e-09 -1.4226e-09 -3.37098e-09 -3.79898e-08 -3.54309e-09 -5.32838e-08 -8.08063e-10 -4.94497e-10 -4.03799e-09 -2.36982e-08
          -8.31427e-10 -1.3067e-09 -4.86327e-09 -1.90558e-08 -2.40085e-08 -3.75511e-09 -1.3733e-09 -2.42215e-09 -3.90157e-08 -2.39388e-09 -6.50921e-08 -5.46301e-10
          -3.35549e-10 -6.89827e-09 -1.8253e-08 -1.00203e-09 -1.27838e-09 -5.22714e-09 -1.41957e-08 -1.70914e-08 -7.38644e-09 -1.83747e-09 -2.24844e-09 -3.8828e-08
          -1.35482e-09 -7.5883e-08 -4.10025e-10 -3.25527e-10 -1.02423e-08 -1.05389e-08 -1.71283e-09 -1.50095e-09 -5.40201e-09 -1.07922e-08 -1.22735e-08 -1.06738e-08
          -1.62937e-09 -2.42098e-09 -3.92447e-08 -9.81565e-10 -8.33036e-08 -2.04057e-09 4.29804e-11 -1.03867e-08 -7.32668e-09 -3.1659e-09 -1.93817e-09 -5.52402e-09
          -6.23605e-09 -1.05866e-08 -8.28855e-09 -1.6043e-09 -3.00376e-09 -3.77264e-08 -2.14273e-09 -8.66314e-08 -8.54189e-09 -9.61763e-10 -5.72705e-09 -5.0584e-09
          -5.94609e-09 -2.82759e-09 -5.37525e-09 -6.31046e-09 -1.30368e-08 -5.04271e-09 -1.5665e-09 -3.93965e-09 -3.44575e-08 -1.0024e-09 -8.0963e-08 -1.46359e-08
          -2.43573e-09 -3.51561e-09 -2.04149e-09 -6.56875e-09 -4.44784e-09 -4.67499e-09 -7.34894e-09 -1.19882e-08 -2.98585e-09 -1.26098e-09 -4.91505e-09 -3.39217e-08
          -6.49651e-10 -7.27256e-08 -1.7384e-08 -4.52895e-09 -2.97036e-09 -1.50094e-09 -5.89042e-09 -6.41061e-09 -3.90685e-09 -9.38195e-09 -9.78949e-09 -1.81052e-09
          -1.28102e-09 -5.89431e-09 -3.3521e-08 -8.70798e-10 -6.26218e-08 -1.96174e-08 -7.62445e-09 -3.89763e-09 -3.54916e-09 -8.11977e-09 -1.00908e-08 -3.03054e-09
          -1.02505e-08 -8.09018e-09 -1.19919e-09 -1.34115e-09 -7.65618e-09 -2.94023e-08 -1.98327e-09 -5.04045e-08 -1.99788e-08 -1.06112e-08 -2.80771e-09 -3.13869e-09
          -7.69299e-09 -1.55875e-08 -2.25772e-09 -1.01072e-08 -6.59718e-09 -9.79318e-10 -1.39758e-09 -1.1599e-08 -2.17577e-08 -2.90037e-09 -3.98557e-08 -2.17667e-08
          -1.45549e-08 -2.54961e-09 -2.72211e-09 -5.19169e-09 -1.94836e-08 -1.80476e-09 -9.27845e-09 -5.30716e-09 -1.30774e-09 -1.24532e-09 -1.46974e-08 -1.45983e-08
          -3.01648e-09 -2.91402e-08 -2.2258e-08 -2.22625e-08 -2.63041e-09 -2.88944e-09 -6.07642e-09 -2.2489e-08 -1.995e-09 -7.72438e-09 -3.65941e-09 -1.07529e-09
          -1.02817e-09 -1.57755e-08 -9.07121e-09 -2.86576e-09 -2.18475e-08 -1.65298e-08 -3.70062e-08 -2.66411e-09 -2.70315e-09 -7.4557e-09 -2.38414e-08 -2.50034e-09
          -6.04783e-09 -2.91679e-09 -1.24916e-09 -1.00562e-09 -1.5183e-08 -5.913e-09 -2.80144e-09 -1.75642e-08 -8.22597e-09 -4.83801e-08 -2.93136e-09 -3.35889e-09
          -9.15415e-09 -2.51939e-08 -2.78628e-09 -3.98997e-09 -1.97756e-09 -1.38902e-09 -1.14501e-09 -1.20003e-08 -5.21908e-09 -3.11721e-09 -1.677e-08 -5.21556e-09
          -5.0778e-08 -3.7316e-09 -5.1071e-09 -1.02573e-08 -2.6966e-08 -3.94535e-09 -1.9594e-09 -1.06285e-09 -9.80161e-10 -1.05389e-09 -6.96025e-09 -4.78811e-09
          -3.36145e-09 -1.7974e-08 -5.04771e-09 -4.54676e-08 -6.18765e-09 -8.83074e-09 -1.41975e-08 -2.85592e-08 -4.97776e-09 -6.07085e-10 -4.51103e-10 -3.35122e-10
          -3.36327e-10 -1.93172e-09 -2.06137e-09 -1.68373e-09 -1.04034e-08 -5.22088e-09 -2.64472e-08 -1.13318e-08 -9.93426e-09 -1.13469e-08 -1.58719e-08 -2.67064e-09
        </DataArray>
        <DataArray type="Float32" Name="z[0]" NumberOfComponents="1" format="ascii">
          0.150578 0.150579 0.15058 0.150582 0.150582 0.150583 0.150584 0.150585 0.150585 0.150586 0.150587 0.150588
          0.150589 0.150591 0.150596 0.150581 0.150582 0.150583 0.150585 0.150586 0.150587 0.150587 0.150588 0.150588
          0.150589 0.15059 0.150591 0.150593 0.150595 0.150599 0.150584 0.150585 0.150587 0.150588 0.150589 0.15059
          0.15059 0.150591 0.150592 0.150593 0.150593 0.150595 0.150596 0.150598 0.150602 0.150588 0.150589 0.15059
          0.150591 0.152077 0.185283 0.211605 0.252727 0.150595 0.150596 0.150597 0.150598 0.150599 0.150601 0.150605
          0.150591 0.150592 0.159164 0.405618 0.405072 0.414044 0.401945 0.394318 0.150598 0.150599 0.1506 0.150601
          0.150602 0.150604 0.150609 0.150594 0.150595 0.170905 0.431 0.452396 0.455773 0.43359 0.418415 0.150601